LAMMPS data file
# Generated via moleculegraph
# Use if there are more then one bond style or dihedral style

4 atom types
4 bond types
3 angle types
3 dihedral types

2500 atoms
2000 bonds
1500 angles
1000 dihedrals

-23.550550025630994 23.550550025630994 xlo xhi
-23.550550025630994 23.550550025630994 ylo yhi
-23.550550025630994 23.550550025630994 zlo zhi

Masses

1 15.035 # CH3_alkane
2 14.027 # CH2_alkane
3 15.035 # CH3_alkane
4 14.027 # CH2_alkane

# Elements

Bond Coeffs

1 200.0 1.74 # CH3_alkane CH2_alkane
2 200.0 1.54 # CH2_alkane CH2_alkane
3 200.0 1.74 # CH3_alkane CH2_alkane
4 200.0 1.54 # CH2_alkane CH2_alkane

Angle Coeffs

1 62.1001 114.0 # CH2_alkane CH2_alkane CH3_alkane
2 62.1001 114.0 # CH2_alkane CH2_alkane CH3_alkane
3 62.1001 114.0 # CH2_alkane CH2_alkane CH2_alkane

Dihedral Coeffs

1 1.411 -0.271 3.145 0.0 # CH3_alkane CH2_alkane CH2_alkane CH3_alkane
2 1.411 -0.271 3.145 0.0 # CH2_alkane CH2_alkane CH2_alkane CH3_alkane
3 1.411 -0.271 3.145 0.0 # CH2_alkane CH2_alkane CH2_alkane CH2_alkane

Atoms

1 1 1 0.0 3.12198496 -21.4958324 -12.8497896 # CH3_alkane1
2 1 2 0.0 1.9375 -20.6762161 -12.3634157 # CH2_alkane2
3 1 2 0.0 0.719276011 -21.5577259 -12.09589 # CH2_alkane3
4 1 1 0.0 -0.456667989 -20.7421494 -11.5827332 # CH3_alkane4
5 2 1 0.0 3.02370191 21.5359249 -20.1744671 # CH3_alkane1
6 2 2 0.0 1.96856105 20.5493927 -20.6485634 # CH2_alkane2
7 2 2 0.0 0.671800017 21.2588634 -21.0329552 # CH2_alkane3
8 2 1 0.0 -0.373962998 20.2755013 -21.5336704 # CH3_alkane4
9 3 1 0.0 -20.7610569 -4.83292389 -6.81573582 # CH3_alkane1
10 3 2 0.0 -19.3273926 -4.50272512 -7.19902182 # CH2_alkane2
11 3 2 0.0 -19.2567482 -3.81331301 -8.56005573 # CH2_alkane3
12 3 1 0.0 -17.8258724 -3.45775008 -8.93087292 # CH3_alkane4
13 4 1 0.0 -18.5900726 -16.2183971 6.55150318 # CH3_alkane1
14 4 2 0.0 -18.2820034 -15.3515882 7.76190186 # CH2_alkane2
15 4 2 0.0 -17.20755 -14.3127346 7.44720888 # CH2_alkane3
16 4 1 0.0 -16.919426 -13.4275408 8.64918804 # CH3_alkane4
17 5 1 0.0 -13.7123775 11.4148359 -12.1811447 # CH3_alkane1
18 5 2 0.0 -13.3516417 10.0344391 -12.7062254 # CH2_alkane2
19 5 2 0.0 -13.5580502 9.93879223 -14.2165031 # CH2_alkane3
20 5 1 0.0 -13.1707134 8.5673151 -14.7459946 # CH3_alkane4
21 6 1 0.0 -11.6607046 11.217371 5.71531677 # CH3_alkane1
22 6 2 0.0 -11.9859304 12.7000761 5.79985809 # CH2_alkane2
23 6 2 0.0 -12.7418299 13.1785288 4.56196022 # CH2_alkane3
24 6 1 0.0 -13.0918016 14.65483 4.65887785 # CH3_alkane4
25 7 1 0.0 21.5402298 -3.71198201 0.200138003 # CH3_alkane1
26 7 2 0.0 20.7116604 -2.64800596 0.902109981 # CH2_alkane2
27 7 2 0.0 21.5329323 -1.38978398 1.17612505 # CH2_alkane3
28 7 1 0.0 20.696991 -0.315230995 1.85279202 # CH3_alkane4
29 8 1 0.0 5.75274277 -17.4352798 3.17826104 # CH3_alkane1
30 8 2 0.0 5.19576597 -16.0218353 3.1209619 # CH2_alkane2
31 8 2 0.0 3.66847301 -16.0215569 3.12916803 # CH2_alkane3
32 8 1 0.0 3.11143994 -14.6072674 3.10025692 # CH3_alkane4
33 9 1 0.0 -18.2898636 2.09532905 18.3431492 # CH3_alkane1
34 9 2 0.0 -17.6863194 3.17744303 19.2241135 # CH2_alkane2
35 9 2 0.0 -16.5619888 3.92101407 18.5060081 # CH2_alkane3
36 9 1 0.0 -15.9771643 5.02173615 19.3764877 # CH3_alkane4
37 10 1 0.0 -11.2026024 15.1161709 1.16365695 # CH3_alkane1
38 10 2 0.0 -9.90682697 15.8904781 1.34461701 # CH2_alkane2
39 10 2 0.0 -9.69968319 16.3020325 2.8007791 # CH2_alkane3
40 10 1 0.0 -8.3903532 17.0519276 2.98692989 # CH3_alkane4
41 11 1 0.0 0.414088011 21.5319557 -14.6996889 # CH3_alkane1
42 11 2 0.0 1.44894695 20.6743565 -15.4102697 # CH2_alkane2
43 11 2 0.0 2.72066808 21.4653454 -15.7098646 # CH2_alkane3
44 11 1 0.0 3.76631808 20.6003494 -16.3952389 # CH3_alkane4
45 12 1 0.0 -3.01545906 3.18235707 -21.5555305 # CH3_alkane1
46 12 2 0.0 -4.4496088 2.67793608 -21.565836 # CH2_alkane2
47 12 2 0.0 -4.50599289 1.15171504 -21.5530109 # CH2_alkane3
48 12 1 0.0 -5.94007778 0.647320986 -21.5349159 # CH3_alkane4
49 13 1 0.0 20.9852543 14.8894386 5.41262293 # CH3_alkane1
50 13 2 0.0 21.5454063 15.185708 4.03067303 # CH2_alkane2
51 13 2 0.0 20.7950954 16.3328133 3.35696793 # CH2_alkane3
52 13 1 0.0 21.3731422 16.6478596 1.98658597 # CH3_alkane4
53 14 1 0.0 -8.20012283 -0.307027012 18.4227924 # CH3_alkane1
54 14 2 0.0 -8.84073639 -1.41003501 19.2500286 # CH2_alkane2
55 14 2 0.0 -9.2758894 -0.899420977 20.6221104 # CH2_alkane3
56 14 1 0.0 -9.94188118 -1.995206 21.4388428 # CH3_alkane4
57 15 1 0.0 1.043365 -4.37278605 5.17901611 # CH3_alkane1
58 15 2 0.0 1.72136104 -3.63422108 4.0361352 # CH2_alkane2
59 15 2 0.0 1.34305704 -2.15455008 4.0236721 # CH2_alkane3
60 15 1 0.0 2.04289603 -1.41004002 2.89794111 # CH3_alkane4
61 16 1 0.0 10.5850945 9.91791821 0.289126009 # CH3_alkane1
62 16 2 0.0 10.4433308 8.62553787 -0.498901993 # CH2_alkane2
63 16 2 0.0 9.23608494 7.81496477 -0.0317590013 # CH2_alkane3
64 16 1 0.0 9.07775021 6.53610516 -0.838473022 # CH3_alkane4
65 17 1 0.0 -15.3082323 -6.0376091 -10.579133 # CH3_alkane1
66 17 2 0.0 -14.5141211 -5.4215579 -11.7198362 # CH2_alkane2
67 17 2 0.0 -14.9326477 -3.97516608 -11.9757252 # CH2_alkane3
68 17 1 0.0 -14.1192265 -3.34999394 -13.0977068 # CH3_alkane4
69 18 1 0.0 -14.3880777 11.2688408 -3.832268 # CH3_alkane1
70 18 2 0.0 -13.3230257 11.0122528 -4.88638401 # CH2_alkane2
71 18 2 0.0 -13.4752121 9.62624454 -5.5096941 # CH2_alkane3
72 18 1 0.0 -12.4275713 9.38023663 -6.58359718 # CH3_alkane4
73 19 1 0.0 21.3726215 -1.72185802 -3.22364593 # CH3_alkane1
74 19 2 0.0 21.5313148 -0.321722001 -3.79440689 # CH2_alkane2
75 19 2 0.0 21.3506603 0.745510995 -2.71687603 # CH2_alkane3
76 19 1 0.0 21.5371056 2.14463997 -3.28169107 # CH3_alkane4
77 20 1 0.0 -13.0413609 -15.1550035 -1.09618902 # CH3_alkane1
78 20 2 0.0 -12.6798716 -14.2988691 0.107010998 # CH2_alkane2
79 20 2 0.0 -11.1846218 -14.3644123 0.411354005 # CH2_alkane3
80 20 1 0.0 -10.8184195 -13.4863119 1.59717798 # CH3_alkane4
81 21 1 0.0 -14.5109606 18.4962349 -17.9329243 # CH3_alkane1
82 21 2 0.0 -13.4630852 19.439846 -17.3646946 # CH2_alkane2
83 21 2 0.0 -14.1066895 20.6048775 -16.6155796 # CH2_alkane3
84 21 1 0.0 -13.0586433 21.53339 -16.0232964 # CH3_alkane4
85 22 1 0.0 -16.538456 -5.25828505 5.24915123 # CH3_alkane1
86 22 2 0.0 -17.1489449 -4.0914278 6.00880909 # CH2_alkane2
87 22 2 0.0 -17.0074272 -2.78340912 5.23308086 # CH2_alkane3
88 22 1 0.0 -17.6426811 -1.62136197 5.97969818 # CH3_alkane4
89 23 1 0.0 -18.870676 15.2522764 -17.8163204 # CH3_alkane1
90 23 2 0.0 -18.0118656 16.2571621 -18.5673046 # CH2_alkane2
91 23 2 0.0 -18.8491974 17.4131584 -19.1106644 # CH2_alkane3
92 23 1 0.0 -17.9865665 18.4324512 -19.8374748 # CH3_alkane4
93 24 1 0.0 4.31563902 15.9849777 -8.76704121 # CH3_alkane1
94 24 2 0.0 3.69428897 17.3555889 -8.55097485 # CH2_alkane2
95 24 2 0.0 2.1777029 17.2640858 -8.39512253 # CH2_alkane3
96 24 1 0.0 1.55923104 18.6312866 -8.15100861 # CH3_alkane4
97 25 1 0.0 -0.803377986 -17.9749622 21.2019215 # CH3_alkane1
98 25 2 0.0 -1.75520205 -19.1533909 21.3310299 # CH2_alkane2
99 25 2 0.0 -3.20734692 -18.6911583 21.4325657 # CH2_alkane3
100 25 1 0.0 -4.16161823 -19.8703709 21.5333881 # CH3_alkane4
101 26 1 0.0 -4.75356102 5.93486595 8.46286869 # CH3_alkane1
102 26 2 0.0 -3.69026208 4.97375107 7.95593119 # CH2_alkane2
103 26 2 0.0 -2.52628899 5.71918583 7.30617189 # CH2_alkane3
104 26 1 0.0 -1.449821 4.75981617 6.82433701 # CH3_alkane4
105 27 1 0.0 1.582901 16.460865 -21.5466099 # CH3_alkane1
106 27 2 0.0 3.01748896 15.9578114 -21.5315399 # CH2_alkane2
107 27 2 0.0 3.07519603 14.4315872 -21.5294743 # CH2_alkane3
108 27 1 0.0 4.50971603 13.9282827 -21.5428047 # CH3_alkane4
109 28 1 0.0 12.6870422 -6.95357513 21.5788383 # CH3_alkane1
110 28 2 0.0 11.662262 -7.49472809 20.5948086 # CH2_alkane2
111 28 2 0.0 12.3149691 -8.38825417 19.5420609 # CH2_alkane3
112 28 1 0.0 11.2865353 -8.95209408 18.5747185 # CH3_alkane4
113 29 1 0.0 21.4843616 -3.19664907 11.6977386 # CH3_alkane1
114 29 2 0.0 21.5305519 -3.75011492 13.1129694 # CH2_alkane2
115 29 2 0.0 21.4508133 -5.27533197 13.1201172 # CH2_alkane3
116 29 1 0.0 21.5252934 -5.83049393 14.5334768 # CH3_alkane4
117 30 1 0.0 -3.00739789 -1.59025097 16.0194855 # CH3_alkane1
118 30 2 0.0 -2.41223001 -1.93581498 14.6638708 # CH2_alkane2
119 30 2 0.0 -2.61567402 -3.41065192 14.3230495 # CH2_alkane3
120 30 1 0.0 -2.04543805 -3.75017691 12.9552441 # CH3_alkane4
121 31 1 0.0 -4.12908697 3.93191195 12.0047932 # CH3_alkane1
122 31 2 0.0 -2.78227901 3.81184506 12.6997948 # CH2_alkane2
123 31 2 0.0 -1.68871701 4.5520401 11.9323797 # CH2_alkane3
124 31 1 0.0 -0.347555012 4.45574808 12.6418533 # CH3_alkane4
125 32 1 0.0 -17.5665035 15.0295048 21.3665276 # CH3_alkane1
126 32 2 0.0 -18.4557419 16.2484741 21.1802483 # CH2_alkane2
127 32 2 0.0 -19.9008427 15.9525852 21.5762596 # CH2_alkane3
128 32 1 0.0 -20.784565 17.1793385 21.4167309 # CH3_alkane4
129 33 1 0.0 12.2324257 -21.5386982 -14.9249992 # CH3_alkane1
130 33 2 0.0 10.9786863 -20.6805134 -14.9796858 # CH2_alkane2
131 33 2 0.0 9.71688366 -21.5376434 -15.0563517 # CH2_alkane3
132 33 1 0.0 8.46169567 -20.6802368 -15.0826864 # CH3_alkane4
133 34 1 0.0 12.1821737 14.024065 -18.1096973 # CH3_alkane1
134 34 2 0.0 12.8970289 12.7117338 -18.3891697 # CH2_alkane2
135 34 2 0.0 13.8126993 12.316062 -17.2325878 # CH2_alkane3
136 34 1 0.0 14.5061769 10.989749 -17.4996433 # CH3_alkane4
137 35 1 0.0 -13.2727346 9.75007534 13.7663641 # CH3_alkane1
138 35 2 0.0 -13.5090132 8.3598299 14.3344517 # CH2_alkane2
139 35 2 0.0 -14.4764242 8.39514256 15.5157909 # CH2_alkane3
140 35 1 0.0 -14.7347155 7.00170994 16.0662174 # CH3_alkane4
141 36 1 0.0 2.05134797 7.10603285 -11.192009 # CH3_alkane1
142 36 2 0.0 1.12948298 6.41746998 -10.1983395 # CH2_alkane2
143 36 2 0.0 -0.158353999 7.21095324 -9.98726177 # CH2_alkane3
144 36 1 0.0 -1.09255195 6.50848818 -9.01506996 # CH3_alkane4
145 37 1 0.0 -2.88861108 -16.0890026 -4.4376688 # CH3_alkane1
146 37 2 0.0 -3.49702311 -17.4801311 -4.36066198 # CH2_alkane2
147 37 2 0.0 -5.01842117 -17.419548 -4.24078417 # CH2_alkane3
148 37 1 0.0 -5.62928009 -18.8108845 -4.19207096 # CH3_alkane4
149 38 1 0.0 8.88044071 -21.5406132 6.86658192 # CH3_alkane1
150 38 2 0.0 7.95744085 -20.7909222 7.81387615 # CH2_alkane2
151 38 2 0.0 6.64861488 -21.5465527 8.03453827 # CH2_alkane3
152 38 1 0.0 5.73713303 -20.8108463 9.00370121 # CH3_alkane4
153 39 1 0.0 12.2045631 3.92241001 -2.61079192 # CH3_alkane1
154 39 2 0.0 10.8370333 3.39913392 -3.01990795 # CH2_alkane2
155 39 2 0.0 10.2375841 4.22733784 -4.15455914 # CH2_alkane3
156 39 1 0.0 8.8825264 3.687217 -4.58284092 # CH3_alkane4
157 40 1 0.0 4.96792889 -8.37353802 -2.06606507 # CH3_alkane1
158 40 2 0.0 5.05503798 -9.86854553 -1.80396199 # CH2_alkane2
159 40 2 0.0 3.670506 -10.4850512 -1.61505306 # CH2_alkane3
160 40 1 0.0 3.75568509 -11.9848013 -1.38088596 # CH3_alkane4
161 41 1 0.0 -0.328408003 1.73364794 9.12555218 # CH3_alkane1
162 41 2 0.0 0.997205019 0.993619978 9.20581532 # CH2_alkane2
163 41 2 0.0 0.793685019 -0.520072997 9.20835781 # CH2_alkane3
164 41 1 0.0 2.12048101 -1.26051795 9.26024723 # CH3_alkane4
165 42 1 0.0 -7.71233082 8.90503788 -2.11603999 # CH3_alkane1
166 42 2 0.0 -7.7414999 10.0028353 -3.16738391 # CH2_alkane2
167 42 2 0.0 -9.16226768 10.5085621 -3.40894294 # CH2_alkane3
168 42 1 0.0 -9.18825436 11.6257324 -4.43976498 # CH3_alkane4
169 43 1 0.0 21.54356 11.9963408 -0.115593001 # CH3_alkane1
170 43 2 0.0 20.7672443 10.8779926 -0.792324007 # CH2_alkane2
171 43 2 0.0 21.5578594 9.57124138 -0.79668802 # CH2_alkane3
172 43 1 0.0 20.7703667 8.44580269 -1.44828999 # CH3_alkane4
173 44 1 0.0 -10.3831224 1.75066805 -4.20890284 # CH3_alkane1
174 44 2 0.0 -8.93009377 1.37615395 -3.96440291 # CH2_alkane2
175 44 2 0.0 -8.80930328 0.00306000002 -3.30659199 # CH2_alkane3
176 44 1 0.0 -7.35544682 -0.383848995 -3.08763289 # CH3_alkane4
177 45 1 0.0 -1.14444804 -3.60426497 0.960591972 # CH3_alkane1
178 45 2 0.0 -2.33276701 -4.49031305 1.298455 # CH2_alkane2
179 45 2 0.0 -2.41202593 -4.77242804 2.79739499 # CH2_alkane3
180 45 1 0.0 -3.61626005 -5.63525295 3.13899994 # CH3_alkane4
181 46 1 0.0 -7.78107023 -14.9783735 6.31182814 # CH3_alkane1
182 46 2 0.0 -6.82741117 -16.0327492 6.85049295 # CH2_alkane2
183 46 2 0.0 -5.4682498 -15.9643488 6.15716887 # CH2_alkane3
184 46 1 0.0 -4.50539923 -17.0001221 6.71522808 # CH3_alkane4
185 47 1 0.0 7.60664415 -8.40431786 -7.41756821 # CH3_alkane1
186 47 2 0.0 6.16550589 -8.88464165 -7.47873688 # CH2_alkane2
187 47 2 0.0 5.37513399 -8.4406538 -6.24955797 # CH2_alkane3
188 47 1 0.0 3.92678189 -8.89683437 -6.32382679 # CH3_alkane4
189 48 1 0.0 -18.6691875 -14.8393602 -12.8320856 # CH3_alkane1
190 48 2 0.0 -19.3403149 -13.4774809 -12.9108706 # CH2_alkane2
191 48 2 0.0 -20.8609276 -13.5977964 -12.8336992 # CH2_alkane3
192 48 1 0.0 -21.5309753 -12.2340412 -12.8841648 # CH3_alkane4
193 49 1 0.0 14.4726324 17.8256645 0.78035903 # CH3_alkane1
194 49 2 0.0 15.8082781 18.0047016 1.48415601 # CH2_alkane2
195 49 2 0.0 16.8372021 18.6684418 0.571218014 # CH2_alkane3
196 49 1 0.0 18.1644516 18.8731308 1.28385401 # CH3_alkane4
197 50 1 0.0 12.7369137 -5.07080984 -16.3133297 # CH3_alkane1
198 50 2 0.0 11.5760775 -4.15370893 -16.663641 # CH2_alkane2
199 50 2 0.0 12.0608301 -2.75219607 -17.0289726 # CH2_alkane3
200 50 1 0.0 10.9024544 -1.84281397 -17.4065056 # CH3_alkane4
201 51 1 0.0 15.9951 2.20342708 -3.30139494 # CH3_alkane1
202 51 2 0.0 16.405611 1.38334203 -4.51394415 # CH2_alkane2
203 51 2 0.0 17.7471428 1.84901297 -5.07620287 # CH2_alkane3
204 51 1 0.0 18.171339 1.01090097 -6.27159595 # CH3_alkane4
205 52 1 0.0 3.31522608 -15.2489786 -8.87527561 # CH3_alkane1
206 52 2 0.0 3.90905404 -13.8503389 -8.92533016 # CH2_alkane2
207 52 2 0.0 5.26813316 -13.8441534 -9.62215137 # CH2_alkane3
208 52 1 0.0 5.84931612 -12.4413271 -9.69728947 # CH3_alkane4
209 53 1 0.0 0.44411099 -18.1076641 -7.56274414 # CH3_alkane1
210 53 2 0.0 1.46165395 -18.975687 -8.2855711 # CH2_alkane2
211 53 2 0.0 1.77697003 -20.2440491 -7.49530315 # CH2_alkane3
212 53 1 0.0 2.77325702 -21.1257057 -8.23112679 # CH3_alkane4
213 54 1 0.0 12.925684 16.918932 -11.6261816 # CH3_alkane1
214 54 2 0.0 12.3838778 18.0396633 -12.4989586 # CH2_alkane2
215 54 2 0.0 11.4457502 18.9553642 -11.715313 # CH2_alkane3
216 54 1 0.0 10.9259148 20.0923595 -12.5803871 # CH3_alkane4
217 55 1 0.0 -21.4571247 -9.33050537 -15.6601124 # CH3_alkane1
218 55 2 0.0 -20.6538544 -8.19631481 -16.2763119 # CH2_alkane2
219 55 2 0.0 -21.5564213 -7.04377508 -16.7118778 # CH2_alkane3
220 55 1 0.0 -20.7507248 -5.89770317 -17.3023949 # CH3_alkane4
221 56 1 0.0 21.5329571 -3.06784391 -17.0049515 # CH3_alkane1
222 56 2 0.0 20.1312351 -2.80387402 -17.5310993 # CH2_alkane2
223 56 2 0.0 20.1342945 -1.72995603 -18.617094 # CH2_alkane3
224 56 1 0.0 18.7365952 -1.48583496 -19.1631527 # CH3_alkane4
225 57 1 0.0 -21.539957 1.34916306 12.9538689 # CH3_alkane1
226 57 2 0.0 -21.5394535 0.0353320017 13.7188377 # CH2_alkane2
227 57 2 0.0 -21.5138855 0.266802013 15.2282963 # CH2_alkane3
228 57 1 0.0 -21.5417671 -1.04639101 15.9938602 # CH3_alkane4
229 58 1 0.0 5.6797781 -9.97556686 17.0077858 # CH3_alkane1
230 58 2 0.0 6.53649187 -10.87428 16.1304665 # CH2_alkane2
231 58 2 0.0 6.00992393 -10.9239893 14.6976547 # CH2_alkane3
232 58 1 0.0 6.88264704 -11.8002758 13.8134518 # CH3_alkane4
233 59 1 0.0 13.1049728 10.2111082 5.20179987 # CH3_alkane1
234 59 2 0.0 12.8851614 9.66804981 3.79890895 # CH2_alkane2
235 59 2 0.0 14.1205025 8.93229008 3.28384995 # CH2_alkane3
236 59 1 0.0 13.8911409 8.36493587 1.89214504 # CH3_alkane4
237 60 1 0.0 9.1692009 1.91727698 9.97193718 # CH3_alkane1
238 60 2 0.0 10.2468214 2.93457103 9.63255501 # CH2_alkane2
239 60 2 0.0 10.6731291 3.73014808 10.8646317 # CH2_alkane3
240 60 1 0.0 11.7705917 4.72801113 10.5311899 # CH3_alkane4
241 61 1 0.0 21.5332775 12.3247423 -5.72828197 # CH3_alkane1
242 61 2 0.0 20.8871765 11.0262365 -5.2724638 # CH2_alkane2
243 61 2 0.0 19.3942566 11.2075634 -5.00599098 # CH2_alkane3
244 61 1 0.0 18.742342 9.90275288 -4.57724905 # CH3_alkane4
245 62 1 0.0 16.642622 -7.28603411 15.5234251 # CH3_alkane1
246 62 2 0.0 17.0869312 -8.72810364 15.3380795 # CH2_alkane2
247 62 2 0.0 18.3010426 -8.82543087 14.4165821 # CH2_alkane3
248 62 1 0.0 18.7627468 -10.2647276 14.2535143 # CH3_alkane4
249 63 1 0.0 3.85683489 7.26668596 6.74088621 # CH3_alkane1
250 63 2 0.0 2.614712 7.19373083 7.61446524 # CH2_alkane2
251 63 2 0.0 2.60805988 5.93071795 8.47321224 # CH2_alkane3
252 63 1 0.0 1.37993395 5.87143421 9.36737728 # CH3_alkane4
253 64 1 0.0 -5.86606407 9.74802399 1.972844 # CH3_alkane1
254 64 2 0.0 -6.61667681 10.9379416 1.39664304 # CH2_alkane2
255 64 2 0.0 -5.79978704 12.2233763 1.51084697 # CH2_alkane3
256 64 1 0.0 -6.53849697 13.4082241 0.909362972 # CH3_alkane4
257 65 1 0.0 -11.5024004 -15.7744417 15.9195442 # CH3_alkane1
258 65 2 0.0 -10.2215633 -15.4594212 16.6755543 # CH2_alkane2
259 65 2 0.0 -10.5111952 -15.0294876 18.1122055 # CH2_alkane3
260 65 1 0.0 -9.22907925 -14.7415142 18.8767872 # CH3_alkane4
261 66 1 0.0 16.8950253 5.9864502 21.3839359 # CH3_alkane1
262 66 2 0.0 17.4783115 7.24135113 20.7543831 # CH2_alkane2
263 66 2 0.0 18.6636448 7.77159405 21.5584488 # CH2_alkane3
264 66 1 0.0 19.2647038 9.01032066 20.9137592 # CH3_alkane4
265 67 1 0.0 0.102642998 -12.1583071 16.8554096 # CH3_alkane1
266 67 2 0.0 1.09122896 -13.2697639 17.1695614 # CH2_alkane2
267 67 2 0.0 2.52465391 -12.7451687 17.2223721 # CH2_alkane3
268 67 1 0.0 3.51037788 -13.8509855 17.5642128 # CH3_alkane4
269 68 1 0.0 -19.0288639 18.6938572 14.3481121 # CH3_alkane1
270 68 2 0.0 -19.9076824 19.7212849 15.0433826 # CH2_alkane2
271 68 2 0.0 -20.6731758 20.576355 14.0356283 # CH2_alkane3
272 68 1 0.0 -21.5733681 21.5850792 14.7309465 # CH3_alkane4
273 69 1 0.0 21.1052532 -11.5414133 21.4328213 # CH3_alkane1
274 69 2 0.0 19.9922047 -12.5761251 21.4755821 # CH2_alkane2
275 69 2 0.0 18.6161022 -11.9156857 21.5290451 # CH2_alkane3
276 69 1 0.0 17.5019264 -12.9499702 21.5434322 # CH3_alkane4
277 70 1 0.0 -17.5271072 -4.77277279 19.2587643 # CH3_alkane1
278 70 2 0.0 -17.0975056 -5.79462385 18.2182865 # CH2_alkane2
279 70 2 0.0 -18.0533028 -5.81605816 17.0272007 # CH2_alkane3
280 70 1 0.0 -17.6083298 -6.81785393 15.9737568 # CH3_alkane4
281 71 1 0.0 -16.8451767 6.25049305 7.95163393 # CH3_alkane1
282 71 2 0.0 -17.7048531 5.25763512 7.1857872 # CH2_alkane2
283 71 2 0.0 -17.0921459 4.91710281 5.82883406 # CH2_alkane3
284 71 1 0.0 -17.9371796 3.90292192 5.07471418 # CH3_alkane4
285 72 1 0.0 -20.383213 -11.6338406 18.9353313 # CH3_alkane1
286 72 2 0.0 -18.9063377 -11.5933151 18.5768223 # CH2_alkane2
287 72 2 0.0 -18.4140472 -10.1590729 18.3943596 # CH2_alkane3
288 72 1 0.0 -16.9307785 -10.1170044 18.0634785 # CH3_alkane4
289 73 1 0.0 6.03719187 -1.65686595 11.5828485 # CH3_alkane1
290 73 2 0.0 6.10743618 -2.31792092 10.2155867 # CH2_alkane2
291 73 2 0.0 7.3127408 -1.82537305 9.41725826 # CH2_alkane3
292 73 1 0.0 7.39903307 -2.50706697 8.06109238 # CH3_alkane4
293 74 1 0.0 -19.084549 19.7369061 4.55112314 # CH3_alkane1
294 74 2 0.0 -18.0649128 18.6240044 4.36913395 # CH2_alkane2
295 74 2 0.0 -16.8031731 18.8814087 5.19038582 # CH2_alkane3
296 74 1 0.0 -15.7949057 17.7548294 5.03053904 # CH3_alkane4
297 75 1 0.0 -5.09953022 1.991593 17.0588417 # CH3_alkane1
298 75 2 0.0 -5.85346699 3.29140091 16.8277359 # CH2_alkane2
299 75 2 0.0 -4.98147297 4.50657892 17.1370258 # CH2_alkane3
300 75 1 0.0 -5.72603893 5.80674887 16.8791103 # CH3_alkane4
301 76 1 0.0 -18.4245644 -1.56261694 -2.14972711 # CH3_alkane1
302 76 2 0.0 -19.8875027 -1.66773999 -2.54984307 # CH2_alkane2
303 76 2 0.0 -20.0735741 -1.45619595 -4.0509491 # CH2_alkane3
304 76 1 0.0 -21.5329914 -1.58912802 -4.45563316 # CH3_alkane4
305 77 1 0.0 -12.4851398 4.06037378 -0.380236 # CH3_alkane1
306 77 2 0.0 -13.5352211 2.96810889 -0.255264014 # CH2_alkane2
307 77 2 0.0 -12.8984909 1.61033797 0.0340900011 # CH2_alkane3
308 77 1 0.0 -13.950078 0.523079991 0.186977997 # CH3_alkane4
309 78 1 0.0 -19.0266819 16.2774029 -9.50004768 # CH3_alkane1
310 78 2 0.0 -18.6847878 17.745924 -9.69468975 # CH2_alkane2
311 78 2 0.0 -19.8402443 18.6503277 -9.2708168 # CH2_alkane3
312 78 1 0.0 -19.4882107 20.11973 -9.43894386 # CH3_alkane4
313 79 1 0.0 -20.9698429 12.0497179 -4.36234522 # CH3_alkane1
314 79 2 0.0 -20.5319118 13.1650171 -5.29811096 # CH2_alkane2
315 79 2 0.0 -21.5312634 14.3200016 -5.29820108 # CH2_alkane3
316 79 1 0.0 -21.0794716 15.4475708 -6.21242714 # CH3_alkane4
317 80 1 0.0 4.56757498 18.1671619 3.68578601 # CH3_alkane1
318 80 2 0.0 5.62063789 17.0706768 3.69641089 # CH2_alkane2
319 80 2 0.0 5.3364439 16.0324974 4.77997398 # CH2_alkane3
320 80 1 0.0 6.37369823 14.9210176 4.77238178 # CH3_alkane4
321 81 1 0.0 8.78076553 8.29723358 -16.8793755 # CH3_alkane1
322 81 2 0.0 9.89750671 8.00365353 -15.8904209 # CH2_alkane2
323 81 2 0.0 11.2014818 8.68492603 -16.3005562 # CH2_alkane3
324 81 1 0.0 12.3109627 8.41454792 -15.2969189 # CH3_alkane4
325 82 1 0.0 5.34547615 5.25278997 -9.99900436 # CH3_alkane1
326 82 2 0.0 5.33999014 3.7790451 -10.3723402 # CH2_alkane2
327 82 2 0.0 5.87457991 2.91166401 -9.23455429 # CH2_alkane3
328 82 1 0.0 5.84292412 1.43555903 -9.59711266 # CH3_alkane4
329 83 1 0.0 -13.1265211 6.95737886 21.3353252 # CH3_alkane1
330 83 2 0.0 -13.7427959 8.26950169 20.8772087 # CH2_alkane2
331 83 2 0.0 -15.0931692 8.51716805 21.5464249 # CH2_alkane3
332 83 1 0.0 -15.6965637 9.84256077 21.1098614 # CH3_alkane4
333 84 1 0.0 3.23568797 -4.97152519 8.42652225 # CH3_alkane1
334 84 2 0.0 2.11530399 -5.80393314 9.02915668 # CH2_alkane2
335 84 2 0.0 1.97989595 -7.15281296 8.32567978 # CH2_alkane3
336 84 1 0.0 0.878149986 -7.99674988 8.94637871 # CH3_alkane4
337 85 1 0.0 -21.553154 10.8991766 -17.2196026 # CH3_alkane1
338 85 2 0.0 -20.6978378 9.64548111 -17.3091106 # CH2_alkane2
339 85 2 0.0 -21.5515041 8.38039207 -17.2499809 # CH2_alkane3
340 85 1 0.0 -20.6990662 7.12706614 -17.3677406 # CH3_alkane4
341 86 1 0.0 2.01345801 -10.6381369 -15.1135502 # CH3_alkane1
342 86 2 0.0 1.61478996 -10.7598696 -16.5755959 # CH2_alkane2
343 86 2 0.0 0.102366999 -10.6447802 -16.7545528 # CH2_alkane3
344 86 1 0.0 -0.294048995 -10.7383289 -18.219286 # CH3_alkane4
345 87 1 0.0 -1.34404695 2.25563788 -12.6039286 # CH3_alkane1
346 87 2 0.0 -0.586090982 3.44298792 -13.1757994 # CH2_alkane2
347 87 2 0.0 -1.50245905 4.64857006 -13.3746338 # CH2_alkane3
348 87 1 0.0 -0.738951027 5.84475994 -13.9200907 # CH3_alkane4
349 88 1 0.0 -11.0383749 -10.2012072 3.80387902 # CH3_alkane1
350 88 2 0.0 -12.4230127 -9.57362843 3.81978893 # CH2_alkane2
351 88 2 0.0 -12.3646059 -8.08130646 3.50001407 # CH2_alkane3
352 88 1 0.0 -13.7518244 -7.45935106 3.48820496 # CH3_alkane4
353 89 1 0.0 -15.3077917 0.455870986 -3.53620601 # CH3_alkane1
354 89 2 0.0 -14.2932014 -0.238579005 -4.43045378 # CH2_alkane2
355 89 2 0.0 -13.3692551 -1.15015495 -3.62543988 # CH2_alkane3
356 89 1 0.0 -12.3727751 -1.86623096 -4.52299404 # CH3_alkane4
357 90 1 0.0 5.35982895 19.3257389 7.39264679 # CH3_alkane1
358 90 2 0.0 4.45036507 20.3697338 8.02056313 # CH2_alkane2
359 90 2 0.0 3.14308405 20.5127983 7.24387598 # CH2_alkane3
360 90 1 0.0 2.22171307 21.5364838 7.8876791 # CH3_alkane4
361 91 1 0.0 -16.1884174 21.5397491 1.99233401 # CH3_alkane1
362 91 2 0.0 -15.0990162 20.7009945 1.34346902 # CH2_alkane2
363 91 2 0.0 -14.2437477 21.5343685 0.391259998 # CH2_alkane3
364 91 1 0.0 -13.1368246 20.7023621 -0.236295 # CH3_alkane4
365 92 1 0.0 -21.5666389 7.92924309 4.24065304 # CH3_alkane1
366 92 2 0.0 -20.6229057 8.10579872 5.41943598 # CH2_alkane2
367 92 2 0.0 -19.58078 9.18798923 5.14460421 # CH2_alkane3
368 92 1 0.0 -18.6544533 9.384305 6.33402395 # CH3_alkane4
369 93 1 0.0 -16.6529026 21.1172657 -12.0229177 # CH3_alkane1
370 93 2 0.0 -15.5027332 20.1232281 -12.0046082 # CH2_alkane2
371 93 2 0.0 -14.1501122 20.8322392 -12.0249777 # CH2_alkane3
372 93 1 0.0 -12.9998312 19.8392582 -11.9782858 # CH3_alkane4
373 94 1 0.0 18.6619339 -1.46159399 9.03360558 # CH3_alkane1
374 94 2 0.0 17.4719315 -2.40297294 9.12865543 # CH2_alkane2
375 94 2 0.0 16.7923489 -2.58435011 7.77294016 # CH2_alkane3
376 94 1 0.0 15.6194992 -3.54758096 7.8620801 # CH3_alkane4
377 95 1 0.0 3.70600796 -4.74788094 -12.7565279 # CH3_alkane1
378 95 2 0.0 4.04247522 -4.65541315 -14.236248 # CH2_alkane2
379 95 2 0.0 4.14714384 -3.20286393 -14.6965103 # CH2_alkane3
380 95 1 0.0 4.51123905 -3.11008596 -16.1696587 # CH3_alkane4
381 96 1 0.0 10.1506577 13.7139149 11.1524267 # CH3_alkane1
382 96 2 0.0 8.65499687 13.7096262 10.8798208 # CH2_alkane2
383 96 2 0.0 8.2551136 12.5484304 9.97184944 # CH2_alkane3
384 96 1 0.0 6.75563812 12.5274572 9.72190762 # CH3_alkane4
385 97 1 0.0 13.0480051 -16.6430912 5.51869106 # CH3_alkane1
386 97 2 0.0 13.9389811 -15.7869387 6.40440989 # CH2_alkane2
387 97 2 0.0 13.719759 -16.0959663 7.88398314 # CH2_alkane3
388 97 1 0.0 14.6307011 -15.2599859 8.76866341 # CH3_alkane4
389 98 1 0.0 13.0743818 4.53251314 -15.0574932 # CH3_alkane1
390 98 2 0.0 12.7195415 3.20082092 -14.4156075 # CH2_alkane2
391 98 2 0.0 12.9662361 3.2227931 -12.9085073 # CH2_alkane3
392 98 1 0.0 12.584981 1.90055895 -12.2622232 # CH3_alkane4
393 99 1 0.0 16.6527004 12.7880497 12.6150379 # CH3_alkane1
394 99 2 0.0 15.8085461 14.0513945 12.6669617 # CH2_alkane2
395 99 2 0.0 14.3224621 13.7261086 12.8027534 # CH2_alkane3
396 99 1 0.0 13.4806585 14.9895439 12.8829803 # CH3_alkane4
397 100 1 0.0 14.4685574 21.2121372 -1.79315197 # CH3_alkane1
398 100 2 0.0 12.993576 21.572916 -1.71829295 # CH2_alkane2
399 100 2 0.0 12.1138477 20.3251305 -1.675807 # CH2_alkane3
400 100 1 0.0 10.6404743 20.6854858 -1.572595 # CH3_alkane4
401 101 1 0.0 3.92169309 8.93437958 -14.8505001 # CH3_alkane1
402 101 2 0.0 5.11308718 7.98997116 -14.8486223 # CH2_alkane2
403 101 2 0.0 5.57491684 7.67474699 -13.4273415 # CH2_alkane3
404 101 1 0.0 6.74847603 6.70826387 -13.4243402 # CH3_alkane4
405 102 1 0.0 -20.246254 15.0349216 11.9859438 # CH3_alkane1
406 102 2 0.0 -19.16959 15.8345356 11.2698812 # CH2_alkane2
407 102 2 0.0 -18.07658 14.9259567 10.7108545 # CH2_alkane3
408 102 1 0.0 -17.0143681 15.7227783 9.97050285 # CH3_alkane4
409 103 1 0.0 -7.61836481 -20.7226391 -12.143405 # CH3_alkane1
410 103 2 0.0 -8.36800098 -21.5322857 -13.1892786 # CH2_alkane2
411 103 2 0.0 -8.61797905 -20.7157001 -14.4555321 # CH2_alkane3
412 103 1 0.0 -9.34277821 -21.533989 -15.5121336 # CH3_alkane4
413 104 1 0.0 9.9522419 5.80759621 -8.08993244 # CH3_alkane1
414 104 2 0.0 10.569355 6.41169786 -9.34115791 # CH2_alkane2
415 104 2 0.0 9.78131199 6.0317359 -10.5930796 # CH2_alkane3
416 104 1 0.0 10.381896 6.65870905 -11.8410969 # CH3_alkane4
417 105 1 0.0 19.3970566 5.45894194 -3.66271591 # CH3_alkane1
418 105 2 0.0 19.7832584 5.79905987 -5.09327507 # CH2_alkane2
419 105 2 0.0 21.1396942 6.49828577 -5.15542603 # CH2_alkane3
420 105 1 0.0 21.5389805 6.81328821 -6.58814478 # CH3_alkane4
421 106 1 0.0 16.2784081 19.8639889 -21.037466 # CH3_alkane1
422 106 2 0.0 15.5679798 18.6138515 -21.5312061 # CH2_alkane2
423 106 2 0.0 14.1595097 18.5045967 -20.9507141 # CH2_alkane3
424 106 1 0.0 13.4386921 17.2693157 -21.4663162 # CH3_alkane4
425 107 1 0.0 15.3740377 3.893049 -21.5108814 # CH3_alkane1
426 107 2 0.0 15.0378113 2.41057706 -21.5345325 # CH2_alkane2
427 107 2 0.0 16.2999878 1.55057502 -21.5360775 # CH2_alkane3
428 107 1 0.0 15.9639006 0.0678870007 -21.5313301 # CH3_alkane4
429 108 1 0.0 11.9309473 12.8132973 -3.59503198 # CH3_alkane1
430 108 2 0.0 11.3300591 13.9747887 -2.81965899 # CH2_alkane2
431 108 2 0.0 12.4055614 14.9577208 -2.36158395 # CH2_alkane3
432 108 1 0.0 11.8020506 16.1337185 -1.61048806 # CH3_alkane4
433 109 1 0.0 -14.0394735 -5.26480198 8.7628231 # CH3_alkane1
434 109 2 0.0 -13.0609837 -5.39883804 7.60700083 # CH2_alkane2
435 109 2 0.0 -11.7431335 -6.02445507 8.05929279 # CH2_alkane3
436 109 1 0.0 -10.7748928 -6.1844368 6.89814997 # CH3_alkane4
437 110 1 0.0 19.8574276 -19.6673584 10.8142176 # CH3_alkane1
438 110 2 0.0 18.6934986 -18.6909122 10.8703995 # CH2_alkane2
439 110 2 0.0 17.3524303 -19.4112301 10.7464085 # CH2_alkane3
440 110 1 0.0 16.1874332 -18.4380894 10.8307762 # CH3_alkane4
441 111 1 0.0 14.5228958 -17.0314274 -9.00111008 # CH3_alkane1
442 111 2 0.0 15.0985279 -16.3857498 -10.2513418 # CH2_alkane2
443 111 2 0.0 14.6391335 -14.936223 -10.394599 # CH2_alkane3
444 111 1 0.0 15.237114 -14.281744 -11.6296759 # CH3_alkane4
445 112 1 0.0 -6.64634609 20.8987694 18.7771149 # CH3_alkane1
446 112 2 0.0 -7.94194889 21.5832787 19.1823235 # CH2_alkane2
447 112 2 0.0 -9.15917397 20.8638668 18.6048279 # CH2_alkane3
448 112 1 0.0 -10.4560881 21.5317154 19.032999 # CH3_alkane4
449 113 1 0.0 -11.9356689 10.3100567 -21.5310497 # CH3_alkane1
450 113 2 0.0 -12.1383648 11.7076197 -20.9679623 # CH2_alkane2
451 113 2 0.0 -13.364727 12.3839073 -21.5773602 # CH2_alkane3
452 113 1 0.0 -13.5838528 13.770565 -20.9938335 # CH3_alkane4
453 114 1 0.0 20.547596 -6.88396692 -16.5839939 # CH3_alkane1
454 114 2 0.0 19.8048973 -7.72392178 -15.5572491 # CH2_alkane2
455 114 2 0.0 20.669796 -8.87302971 -15.0432472 # CH2_alkane3
456 114 1 0.0 19.9373226 -9.69634438 -13.995882 # CH3_alkane4
457 115 1 0.0 -1.5302 -3.02727509 21.5331631 # CH3_alkane1
458 115 2 0.0 -1.675699 -1.52698398 21.3349514 # CH2_alkane2
459 115 2 0.0 -2.65948606 -1.20376396 20.2122822 # CH2_alkane3
460 115 1 0.0 -2.8264699 0.296631008 20.0326443 # CH3_alkane4
461 116 1 0.0 -12.3506603 14.4312992 -2.58394408 # CH3_alkane1
462 116 2 0.0 -12.0655699 15.611455 -3.4989779 # CH2_alkane2
463 116 2 0.0 -11.4336672 15.1598892 -4.81407499 # CH2_alkane3
464 116 1 0.0 -11.1743336 16.3369656 -5.7406702 # CH3_alkane4
465 117 1 0.0 -10.7708483 -10.6830387 -1.575598 # CH3_alkane1
466 117 2 0.0 -11.7237501 -10.0163927 -0.596367002 # CH2_alkane2
467 117 2 0.0 -13.1624794 -10.0452309 -1.10814905 # CH2_alkane3
468 117 1 0.0 -14.1195803 -9.40369034 -0.116322003 # CH3_alkane4
469 118 1 0.0 -21.5319538 12.4327431 19.9573002 # CH3_alkane1
470 118 2 0.0 -21.558773 10.9216928 20.1226501 # CH2_alkane2
471 118 2 0.0 -20.8065395 10.4827204 21.3772984 # CH2_alkane3
472 118 1 0.0 -20.8571434 8.97403526 21.5579872 # CH3_alkane4
473 119 1 0.0 -12.9387703 -2.99529004 11.8203869 # CH3_alkane1
474 119 2 0.0 -12.6070929 -2.22431993 13.0880327 # CH2_alkane2