LAMMPS data file
# Generated via moleculegraph
# Use if there are more then one bond style or dihedral style

2 atom types
2 bond types
2 angle types
2 dihedral types

3000 atoms
2500 bonds
2000 angles
1500 dihedrals

-26.48172974875866 26.48172974875866 xlo xhi
-26.48172974875866 26.48172974875866 ylo yhi
-26.48172974875866 26.48172974875866 zlo zhi

Masses

1 15.035 # CH3_alkane
2 14.027 # CH2_alkane

# Elements

Bond Coeffs

1 200.0 1.74 # CH3_alkane CH2_alkane
2 200.0 1.54 # CH2_alkane CH2_alkane

Angle Coeffs

1 62.1001 114.0 # CH2_alkane CH2_alkane CH3_alkane
2 62.1001 114.0 # CH2_alkane CH2_alkane CH2_alkane

Dihedral Coeffs

1 1.411 -0.271 3.145 0.0 # CH2_alkane CH2_alkane CH2_alkane CH3_alkane
2 1.411 -0.271 3.145 0.0 # CH2_alkane CH2_alkane CH2_alkane CH2_alkane

Atoms

1 1 1 0.0 -12.1811523 -8.22794342 -20.7037315 # CH3_alkane1
2 1 2 0.0 -13.0353079 -6.97105789 -20.658844 # CH2_alkane2
3 1 2 0.0 -12.2354469 -5.73533678 -21.0700893 # CH2_alkane3
4 1 2 0.0 -13.0887871 -4.46833086 -20.9912949 # CH2_alkane4
5 1 2 0.0 -12.2985897 -3.23748803 -21.4348774 # CH2_alkane5
6 1 1 0.0 -13.153204 -1.980762 -21.3901482 # CH3_alkane6
7 2 1 0.0 -11.1836071 -4.94105482 7.85577202 # CH3_alkane1
8 2 2 0.0 -9.97914505 -5.45175505 7.08129406 # CH2_alkane2
9 2 2 0.0 -9.19975185 -4.30522585 6.43792391 # CH2_alkane3
10 2 2 0.0 -8.00832939 -4.8254261 5.6319418 # CH2_alkane4
11 2 2 0.0 -7.20951796 -3.67681003 5.01652622 # CH2_alkane5
12 2 1 0.0 -6.00488806 -4.18790102 4.24233007 # CH3_alkane6
13 3 1 0.0 -22.4117069 15.7183084 -23.2027702 # CH3_alkane1
14 3 2 0.0 -21.0515347 15.0660324 -23.0134792 # CH2_alkane2
15 3 2 0.0 -19.9325886 16.1062527 -22.970974 # CH2_alkane3
16 3 2 0.0 -18.5626774 15.4440746 -22.8142376 # CH2_alkane4
17 3 2 0.0 -17.447094 16.4860878 -22.7378464 # CH2_alkane5
18 3 1 0.0 -16.087019 15.8334217 -22.5482388 # CH3_alkane6
19 4 1 0.0 -20.2645664 13.342557 -19.2608776 # CH3_alkane1
20 4 2 0.0 -20.6579037 13.633955 -17.8215275 # CH2_alkane2
21 4 2 0.0 -22.1464043 13.3800402 -17.58531 # CH2_alkane3
22 4 2 0.0 -22.5450459 13.7064228 -16.1450787 # CH2_alkane4
23 4 2 0.0 -24.0263424 13.4203968 -15.8999262 # CH2_alkane5
24 4 1 0.0 -24.4192753 13.7116404 -14.4603062 # CH3_alkane6
25 5 1 0.0 18.0628948 -11.3759756 17.8740273 # CH3_alkane1
26 5 2 0.0 18.5573978 -10.5929794 16.6683159 # CH2_alkane2
27 5 2 0.0 17.3951302 -10.0771303 15.8204098 # CH2_alkane3
28 5 2 0.0 17.8970318 -9.31883812 14.5904541 # CH2_alkane4
29 5 2 0.0 16.7347164 -8.77412987 13.7607136 # CH2_alkane5
30 5 1 0.0 17.2296295 -7.99088621 12.5551777 # CH3_alkane6
31 6 1 0.0 -17.1406803 -17.6119728 -16.732666 # CH3_alkane1
32 6 2 0.0 -18.1991081 -16.7259731 -16.0954094 # CH2_alkane2
33 6 2 0.0 -19.0439396 -16.0144005 -17.1517372 # CH2_alkane3
34 6 2 0.0 -20.0854111 -15.0982475 -16.5069866 # CH2_alkane4
35 6 2 0.0 -20.9523029 -14.4126749 -17.5627537 # CH2_alkane5
36 6 1 0.0 -22.0108757 -13.5269384 -16.9250851 # CH3_alkane6
37 7 1 0.0 -19.4493065 -17.2657261 8.93257809 # CH3_alkane1
38 7 2 0.0 -19.4346352 -16.6155739 7.55837107 # CH2_alkane2
39 7 2 0.0 -20.6896496 -16.9659634 6.75957394 # CH2_alkane3
40 7 2 0.0 -20.6555462 -16.3376331 5.36539316 # CH2_alkane4
41 7 2 0.0 -21.9258995 -16.6602478 4.57908583 # CH2_alkane5
42 7 1 0.0 -21.9110126 -16.0096416 3.20496202 # CH3_alkane6
43 8 1 0.0 -0.691825986 14.7935448 17.4718742 # CH3_alkane1
44 8 2 0.0 0.0169670004 15.5716896 16.3748512 # CH2_alkane2
45 8 2 0.0 -0.659987986 16.9172306 16.1157055 # CH2_alkane3
46 8 2 0.0 0.0355859995 17.6823387 14.9885464 # CH2_alkane4
47 8 2 0.0 -0.620738029 19.0423431 14.7523785 # CH2_alkane5
48 8 1 0.0 0.0885479972 19.8203812 13.6554279 # CH3_alkane6
49 9 1 0.0 -9.90485573 1.18058598 -3.80250001 # CH3_alkane1
50 9 2 0.0 -10.8847857 2.27971792 -4.18065786 # CH2_alkane2
51 9 2 0.0 -12.1538935 1.70630705 -4.81031895 # CH2_alkane3
52 9 2 0.0 -13.122673 2.81683111 -5.2200799 # CH2_alkane4
53 9 2 0.0 -14.4060822 2.24191809 -5.81882 # CH2_alkane5
54 9 1 0.0 -15.3859596 3.34139299 -6.19660521 # CH3_alkane6
55 10 1 0.0 2.46590209 16.5177765 11.762166 # CH3_alkane1
56 10 2 0.0 2.66022992 15.2290154 10.9794216 # CH2_alkane2
57 10 2 0.0 3.75655389 15.3743382 9.92450047 # CH2_alkane3
58 10 2 0.0 3.92591405 14.0865288 9.11668491 # CH2_alkane4
59 10 2 0.0 5.04517078 14.2209606 8.08452892 # CH2_alkane5
60 10 1 0.0 5.23942804 12.9318333 7.30213404 # CH3_alkane6
61 11 1 0.0 -24.2265091 3.76334095 -9.15592766 # CH3_alkane1
62 11 2 0.0 -23.6211586 5.14601707 -9.33791065 # CH2_alkane2
63 11 2 0.0 -22.5595074 5.43660498 -8.2775507 # CH2_alkane3
64 11 2 0.0 -21.976902 6.84114695 -8.44349289 # CH2_alkane4
65 11 2 0.0 -20.8914127 7.11904383 -7.40395403 # CH2_alkane5
66 11 1 0.0 -20.2860413 8.5017767 -7.58644295 # CH3_alkane6
67 12 1 0.0 3.23847008 13.8085909 2.88235688 # CH3_alkane1
68 12 2 0.0 4.41382313 12.8913431 3.1799469 # CH2_alkane2
69 12 2 0.0 3.95930195 11.4461937 3.382092 # CH2_alkane3
70 12 2 0.0 5.14022923 10.5325994 3.71444392 # CH2_alkane4
71 12 2 0.0 4.69021797 9.08169079 3.8832829 # CH2_alkane5
72 12 1 0.0 5.86594677 8.16462898 4.18058205 # CH3_alkane6
73 13 1 0.0 9.02834034 -14.0389709 1.60792899 # CH3_alkane1
74 13 2 0.0 8.81203842 -14.486516 0.171169996 # CH2_alkane2
75 13 2 0.0 7.78021383 -13.6107388 -0.538941026 # CH2_alkane3
76 13 2 0.0 7.54056692 -14.0847864 -1.97335804 # CH2_alkane4
77 13 2 0.0 6.53386688 -13.1885443 -2.69409299 # CH2_alkane5
78 13 1 0.0 6.31802988 -13.6362352 -4.13100386 # CH3_alkane6
79 14 1 0.0 16.9630814 3.88547802 2.09878898 # CH3_alkane1
80 14 2 0.0 17.6438446 4.73847818 3.15723801 # CH2_alkane2
81 14 2 0.0 18.9478989 4.10145807 3.63635492 # CH2_alkane3
82 14 2 0.0 19.6126041 4.94558907 4.72507477 # CH2_alkane4
83 14 2 0.0 20.933567 4.32577276 5.18008709 # CH2_alkane5
84 14 1 0.0 21.6142368 5.17924976 6.2383852 # CH3_alkane6
85 15 1 0.0 -14.527236 16.0849934 -10.8545933 # CH3_alkane1
86 15 2 0.0 -15.8513279 16.7219505 -11.2450132 # CH2_alkane2
87 15 2 0.0 -16.0654144 16.6864109 -12.7578936 # CH2_alkane3
88 15 2 0.0 -17.3826694 17.3580723 -13.1495781 # CH2_alkane4
89 15 2 0.0 -17.6126518 17.2925396 -14.6592016 # CH2_alkane5
90 15 1 0.0 -18.9370594 17.9293594 -15.0492449 # CH3_alkane6
91 16 1 0.0 -1.32855999 -0.461082011 -24.4642963 # CH3_alkane1
92 16 2 0.0 -1.45345199 -1.89608002 -23.9779396 # CH2_alkane2
93 16 2 0.0 -1.35864699 -1.98151398 -22.4549103 # CH2_alkane3
94 16 2 0.0 -1.45094097 -3.42990494 -21.9718494 # CH2_alkane4
95 16 2 0.0 -1.39003205 -3.5121851 -20.4468346 # CH2_alkane5
96 16 1 0.0 -1.51526594 -4.94738913 -19.9607964 # CH3_alkane6
97 17 1 0.0 -0.299400985 -18.803957 5.84895182 # CH3_alkane1
98 17 2 0.0 -0.186596006 -20.2678871 6.24334097 # CH2_alkane2
99 17 2 0.0 -1.56314695 -20.907074 6.42349291 # CH2_alkane3
100 17 2 0.0 -1.44544899 -22.3704357 6.85293198 # CH2_alkane4
101 17 2 0.0 -2.82165504 -23.0188942 7.00027084 # CH2_alkane5
102 17 1 0.0 -2.70844603 -24.4829903 7.39439583 # CH3_alkane6
103 18 1 0.0 7.48611498 -0.0280080009 -19.8065872 # CH3_alkane1
104 18 2 0.0 6.6222949 -0.796931028 -20.7934666 # CH2_alkane2
105 18 2 0.0 5.46381807 0.0571230017 -21.3076935 # CH2_alkane3
106 18 2 0.0 4.57785416 -0.730552018 -22.2743053 # CH2_alkane4
107 18 2 0.0 3.43894696 0.133907005 -22.8144474 # CH2_alkane5
108 18 1 0.0 2.5754621 -0.635299981 -23.8015862 # CH3_alkane6
109 19 1 0.0 24.4596233 -3.24713206 21.0175877 # CH3_alkane1
110 19 2 0.0 24.2194672 -3.64544392 19.5701656 # CH2_alkane2
111 19 2 0.0 24.4619637 -2.47377706 18.6192207 # CH2_alkane3
112 19 2 0.0 24.1868134 -2.86907291 17.1674156 # CH2_alkane4
113 19 2 0.0 24.4618416 -1.70711803 16.2132816 # CH2_alkane5
114 19 1 0.0 24.2218552 -2.10591102 14.7658348 # CH3_alkane6
115 20 1 0.0 -18.429512 -15.0588589 -5.94796181 # CH3_alkane1
116 20 2 0.0 -19.7103939 -15.6605206 -5.39235306 # CH2_alkane2
117 20 2 0.0 -20.0453224 -15.0903034 -4.01446295 # CH2_alkane3
118 20 2 0.0 -21.3160744 -15.7225914 -3.44428611 # CH2_alkane4
119 20 2 0.0 -21.6694927 -15.1279259 -2.08134007 # CH2_alkane5
120 20 1 0.0 -22.9506721 -15.7296429 -1.526142 # CH3_alkane6
121 21 1 0.0 13.5925474 -23.6519165 1.54426503 # CH3_alkane1
122 21 2 0.0 14.215394 -22.2650833 1.55516005 # CH2_alkane2
123 21 2 0.0 15.7391844 -22.3347054 1.45964801 # CH2_alkane3
124 21 2 0.0 16.3640556 -20.9392853 1.50481999 # CH2_alkane4
125 21 2 0.0 17.885498 -21.0071011 1.375337 # CH2_alkane5
126 21 1 0.0 18.5080147 -19.6199875 1.38596594 # CH3_alkane6
127 22 1 0.0 -18.9967651 -21.9222984 14.4647799 # CH3_alkane1
128 22 2 0.0 -20.0147839 -22.3320713 15.5169611 # CH2_alkane2
129 22 2 0.0 -21.2367859 -22.9975739 14.8847208 # CH2_alkane3
130 22 2 0.0 -22.2734432 -23.377924 15.9432001 # CH2_alkane4
131 22 2 0.0 -23.4803162 -24.0737915 15.3144093 # CH2_alkane5
132 22 1 0.0 -24.4980469 -24.483717 16.3669834 # CH3_alkane6
133 23 1 0.0 1.92492795 19.3697929 -5.82053518 # CH3_alkane1
134 23 2 0.0 2.80843806 18.4568214 -6.65555191 # CH2_alkane2
135 23 2 0.0 3.53870296 17.4346638 -5.78502798 # CH2_alkane3
136 23 2 0.0 4.45216608 16.5399952 -6.6245842 # CH2_alkane4
137 23 2 0.0 5.15655422 15.4960661 -5.75844097 # CH2_alkane5
138 23 1 0.0 6.03979492 14.5830259 -6.59388685 # CH3_alkane6
139 24 1 0.0 -24.3495922 13.4525824 14.3228703 # CH3_alkane1
140 24 2 0.0 -23.3123684 12.4639177 13.8148651 # CH2_alkane2
141 24 2 0.0 -22.3386574 13.1251631 12.8399038 # CH2_alkane3
142 24 2 0.0 -21.3174934 12.1196489 12.3052359 # CH2_alkane4
143 24 2 0.0 -20.3231907 12.7883959 11.3563995 # CH2_alkane5
144 24 1 0.0 -19.2858715 11.7994366 10.8487997 # CH3_alkane6
145 25 1 0.0 9.48036385 6.95381117 5.26712894 # CH3_alkane1
146 25 2 0.0 10.8875189 6.48500776 5.60104084 # CH2_alkane2
147 25 2 0.0 11.3528833 7.0277009 6.95190287 # CH2_alkane3
148 25 2 0.0 12.78125 6.58156919 7.2688179 # CH2_alkane4
149 25 2 0.0 13.2341967 7.09634876 8.63483238 # CH2_alkane5
150 25 1 0.0 14.6413679 6.62706995 8.96856117 # CH3_alkane6
151 26 1 0.0 15.5539379 -11.9817076 -16.6376419 # CH3_alkane1
152 26 2 0.0 17.0063229 -12.2759552 -16.9772873 # CH2_alkane2
153 26 2 0.0 17.7054844 -11.047554 -17.5587578 # CH2_alkane3
154 26 2 0.0 19.1566563 -11.3568926 -17.9303932 # CH2_alkane4
155 26 2 0.0 19.8654613 -10.1194696 -18.4804249 # CH2_alkane5
156 26 1 0.0 21.3179951 -10.414032 -18.8196964 # CH3_alkane6
157 27 1 0.0 -0.997542977 14.9190006 24.4804649 # CH3_alkane1
158 27 2 0.0 -1.65597606 15.0445719 23.1158924 # CH2_alkane2
159 27 2 0.0 -1.92385101 13.6739292 22.495018 # CH2_alkane3
160 27 2 0.0 -2.55541801 13.8049631 21.1080589 # CH2_alkane4
161 27 2 0.0 -2.85419893 12.4341679 20.5015907 # CH2_alkane5
162 27 1 0.0 -3.51294398 12.5601397 19.1370716 # CH3_alkane6
163 28 1 0.0 18.7128048 -2.1400249 19.5569096 # CH3_alkane1
164 28 2 0.0 18.9980335 -0.708200991 19.1327839 # CH2_alkane2
165 28 2 0.0 18.7347832 -0.502857983 17.6413288 # CH2_alkane3
166 28 2 0.0 19.0549622 0.929827988 17.2116776 # CH2_alkane4
167 28 2 0.0 18.7596188 1.14416897 15.7274332 # CH2_alkane5
168 28 1 0.0 19.0446949 2.57627106 15.3037071 # CH3_alkane6
169 29 1 0.0 -5.49053192 19.7508736 8.48201466 # CH3_alkane1
170 29 2 0.0 -6.52186394 20.7151146 7.91814184 # CH2_alkane2
171 29 2 0.0 -6.67321301 20.5520592 6.40605307 # CH2_alkane3
172 29 2 0.0 -7.68685722 21.5466213 5.83765793 # CH2_alkane4
173 29 2 0.0 -7.86302805 21.3607807 4.33081388 # CH2_alkane5
174 29 1 0.0 -8.89471817 22.3250427 3.76730394 # CH3_alkane6
175 30 1 0.0 -12.0330219 -6.2559638 0.548636019 # CH3_alkane1
176 30 2 0.0 -13.1684237 -5.82265282 -0.364852995 # CH2_alkane2
177 30 2 0.0 -14.5023098 -6.42521477 0.0751160011 # CH2_alkane3
178 30 2 0.0 -15.6360912 -6.0142169 -0.865800977 # CH2_alkane4
179 30 2 0.0 -16.9756603 -6.58929396 -0.40646401 # CH2_alkane5
180 30 1 0.0 -18.1109467 -6.15550089 -1.32007098 # CH3_alkane6
181 31 1 0.0 -19.8709087 -3.2893939 -24.4559612 # CH3_alkane1
182 31 2 0.0 -19.9744759 -2.17449307 -23.4275513 # CH2_alkane2
183 31 2 0.0 -21.0968494 -2.44004798 -22.4247227 # CH2_alkane3
184 31 2 0.0 -21.2198143 -1.30015695 -21.4121857 # CH2_alkane4
185 31 2 0.0 -22.3199005 -1.58171701 -20.3891087 # CH2_alkane5
186 31 1 0.0 -22.4229813 -0.466681987 -19.3606167 # CH3_alkane6
187 32 1 0.0 -17.9607067 12.8497581 0.749185026 # CH3_alkane1
188 32 2 0.0 -17.3963375 11.459878 0.502043009 # CH2_alkane2
189 32 2 0.0 -15.9141026 11.514657 0.133413002 # CH2_alkane3
190 32 2 0.0 -15.3583412 10.1175032 -0.147283003 # CH2_alkane4
191 32 2 0.0 -13.8680944 10.1691847 -0.482912004 # CH2_alkane5
192 32 1 0.0 -13.3039646 8.77901268 -0.729710996 # CH3_alkane6
193 33 1 0.0 -10.8055096 8.20891571 20.1985035 # CH3_alkane1
194 33 2 0.0 -10.4226227 9.46647167 19.4347553 # CH2_alkane2
195 33 2 0.0 -11.1391068 10.6978388 19.9881935 # CH2_alkane3
196 33 2 0.0 -10.7772741 11.9552946 19.1959934 # CH2_alkane4
197 33 2 0.0 -11.4675407 13.1920471 19.7705612 # CH2_alkane5
198 33 1 0.0 -11.0841608 14.4495344 19.0067062 # CH3_alkane6
199 34 1 0.0 -14.1349287 7.72514009 -24.4636288 # CH3_alkane1
200 34 2 0.0 -13.3194733 8.65511894 -23.5795879 # CH2_alkane2
201 34 2 0.0 -14.0489082 9.97521782 -23.3322563 # CH2_alkane3
202 34 2 0.0 -13.21099 10.9211731 -22.4704189 # CH2_alkane4
203 34 2 0.0 -13.9546051 12.2278509 -22.1951294 # CH2_alkane5
204 34 1 0.0 -13.1389227 13.1575146 -21.3107567 # CH3_alkane6
205 35 1 0.0 -22.1901855 9.78246593 7.28642607 # CH3_alkane1
206 35 2 0.0 -23.2940273 9.2450161 8.18311024 # CH2_alkane2
207 35 2 0.0 -22.7714748 8.92253017 9.58269787 # CH2_alkane3
208 35 2 0.0 -23.8771534 8.35060692 10.4715643 # CH2_alkane4
209 35 2 0.0 -23.3625488 8.05976105 11.8810816 # CH2_alkane5
210 35 1 0.0 -24.4668007 7.52257681 12.7776251 # CH3_alkane6
211 36 1 0.0 21.1747971 -14.5889874 3.926615 # CH3_alkane1
212 36 2 0.0 22.0586166 -15.782032 4.2535181 # CH2_alkane2
213 36 2 0.0 21.2766018 -17.0934639 4.18639421 # CH2_alkane3
214 36 2 0.0 22.1607571 -18.2879219 4.54866219 # CH2_alkane4
215 36 2 0.0 21.3874073 -19.6024914 4.44870615 # CH2_alkane5
216 36 1 0.0 22.2716751 -20.7954159 4.77540302 # CH3_alkane6
217 37 1 0.0 4.8952198 18.8886318 -24.4647999 # CH3_alkane1
218 37 2 0.0 5.17244005 17.3939877 -24.4414005 # CH2_alkane2
219 37 2 0.0 6.6726799 17.1023636 -24.4532661 # CH2_alkane3
220 37 2 0.0 6.94714594 15.5976171 -24.4636765 # CH2_alkane4
221 37 2 0.0 8.44736576 15.3060741 -24.4414444 # CH2_alkane5
222 37 1 0.0 8.72422028 13.8112431 -24.4177418 # CH3_alkane6
223 38 1 0.0 10.7118406 2.68957996 3.33022809 # CH3_alkane1
224 38 2 0.0 10.485714 3.270118 1.94343197 # CH2_alkane2
225 38 2 0.0 9.41362476 4.35926914 1.96018195 # CH2_alkane3
226 38 2 0.0 9.16508102 4.91725922 0.557834983 # CH2_alkane4
227 38 2 0.0 8.11724377 6.02977896 0.579928994 # CH2_alkane5
228 38 1 0.0 7.89158392 6.610322 -0.80707401 # CH3_alkane6
229 39 1 0.0 5.511518 13.0410528 -15.5637703 # CH3_alkane1
230 39 2 0.0 6.73474979 12.2167349 -15.9319592 # CH2_alkane2
231 39 2 0.0 6.34997082 10.7949133 -16.3397255 # CH2_alkane3
232 39 2 0.0 7.58570623 9.95888233 -16.6769428 # CH2_alkane4
233 39 2 0.0 7.19861889 8.54731083 -17.1171513 # CH2_alkane5
234 39 1 0.0 8.42215729 7.72332907 -17.4855728 # CH3_alkane6
235 40 1 0.0 -18.1482792 -19.7534428 4.90277719 # CH3_alkane1
236 40 2 0.0 -16.9709721 -20.1386948 5.78418779 # CH2_alkane2
237 40 2 0.0 -16.0100002 -18.9663239 5.97909403 # CH2_alkane3
238 40 2 0.0 -14.8098602 -19.3673038 6.83850193 # CH2_alkane4
239 40 2 0.0 -13.86621 -18.1857643 7.06131315 # CH2_alkane5
240 40 1 0.0 -12.6891069 -18.5713329 7.94306993 # CH3_alkane6
241 41 1 0.0 18.2982178 10.8285837 -12.9990234 # CH3_alkane1
242 41 2 0.0 19.2881451 9.76290131 -13.4414263 # CH2_alkane2
243 41 2 0.0 18.5739155 8.50121403 -13.925086 # CH2_alkane3
244 41 2 0.0 19.5734005 7.41926384 -14.3375397 # CH2_alkane4
245 41 2 0.0 18.8591614 6.17010403 -14.8529167 # CH2_alkane5
246 41 1 0.0 19.8494644 5.10468912 -15.2955379 # CH3_alkane6
247 42 1 0.0 -19.0522118 20.8228855 -24.2262917 # CH3_alkane1
248 42 2 0.0 -20.5136719 20.4107189 -24.1513691 # CH2_alkane2
249 42 2 0.0 -21.0213203 20.4068909 -22.7097778 # CH2_alkane3
250 42 2 0.0 -22.4820881 19.9593372 -22.6352501 # CH2_alkane4
251 42 2 0.0 -22.9995384 19.9879627 -21.1973438 # CH2_alkane5
252 42 1 0.0 -24.4612045 19.576004 -21.1228371 # CH3_alkane6
253 43 1 0.0 6.37287521 6.68768215 -13.4385719 # CH3_alkane1
254 43 2 0.0 6.47528601 7.34923887 -12.073576 # CH2_alkane2
255 43 2 0.0 7.92944384 7.6254468 -11.6927366 # CH2_alkane3
256 43 2 0.0 8.0303793 8.26017284 -10.3047028 # CH2_alkane4
257 43 2 0.0 9.48209953 8.5672493 -9.93815041 # CH2_alkane5
258 43 1 0.0 9.58410645 9.22911453 -8.57313824 # CH3_alkane6
259 44 1 0.0 -14.5366459 7.3588872 -15.0439711 # CH3_alkane1
260 44 2 0.0 -16.0264339 7.57547522 -14.8318787 # CH2_alkane2
261 44 2 0.0 -16.3422604 7.90645313 -13.3735876 # CH2_alkane3
262 44 2 0.0 -17.8453083 8.09046745 -13.1575136 # CH2_alkane4
263 44 2 0.0 -18.1577778 8.45462513 -11.7063398 # CH2_alkane5
264 44 1 0.0 -19.6477146 8.6714468 -11.4946756 # CH3_alkane6
265 45 1 0.0 -24.3599968 -7.06068277 7.13822412 # CH3_alkane1
266 45 2 0.0 -24.3180885 -8.46225739 6.55069304 # CH2_alkane2
267 45 2 0.0 -24.3911476 -8.43214321 5.02437019 # CH2_alkane3
268 45 2 0.0 -24.3826752 -9.84517288 4.4387269 # CH2_alkane4
269 45 2 0.0 -24.4216766 -9.81397057 2.9110961 # CH2_alkane5
270 45 1 0.0 -24.3794441 -11.2157946 2.3238709 # CH3_alkane6
271 46 1 0.0 4.13951492 12.0047741 -24.4627056 # CH3_alkane1
272 46 2 0.0 4.42599916 10.7300682 -23.6852665 # CH2_alkane2
273 46 2 0.0 3.30583596 10.4145889 -22.6945019 # CH2_alkane3
274 46 2 0.0 3.61350989 9.15013981 -21.8906326 # CH2_alkane4
275 46 2 0.0 2.47780895 8.81602669 -20.92383 # CH2_alkane5
276 46 1 0.0 2.76451993 7.54101896 -20.1467323 # CH3_alkane6
277 47 1 0.0 19.9515953 -11.5980616 1.63162398 # CH3_alkane1
278 47 2 0.0 18.9461861 -11.2179489 2.70681095 # CH2_alkane2
279 47 2 0.0 17.7653141 -12.187747 2.73738003 # CH2_alkane3
280 47 2 0.0 16.7397404 -11.7827454 3.79750991 # CH2_alkane4
281 47 2 0.0 15.5754852 -12.7715836 3.85097289 # CH2_alkane5
282 47 1 0.0 14.5703669 -12.3912992 4.92654181 # CH3_alkane6
283 48 1 0.0 -14.6341496 -14.537508 -7.03041506 # CH3_alkane1
284 48 2 0.0 -13.4833088 -14.0942507 -6.14134312 # CH2_alkane2
285 48 2 0.0 -12.4225597 -13.3332567 -6.93607712 # CH2_alkane3
286 48 2 0.0 -11.2506065 -12.9183359 -6.04497194 # CH2_alkane4
287 48 2 0.0 -10.2059698 -12.1281252 -6.8326602 # CH2_alkane5
288 48 1 0.0 -9.05535603 -11.6847467 -5.94314814 # CH3_alkane6
289 49 1 0.0 1.60601497 -2.18537807 16.0541573 # CH3_alkane1
290 49 2 0.0 2.63714194 -1.09323502 15.8188734 # CH2_alkane2
291 49 2 0.0 4.05326891 -1.664487 15.7543726 # CH2_alkane3
292 49 2 0.0 5.09070206 -0.558968008 15.5512447 # CH2_alkane4
293 49 2 0.0 6.50353718 -1.13376904 15.4529896 # CH2_alkane5
294 49 1 0.0 7.53442812 -0.0413019992 15.2173882 # CH3_alkane6
295 50 1 0.0 -11.239646 -1.91290402 14.2038422 # CH3_alkane1
296 50 2 0.0 -10.5330524 -2.72287798 15.2790279 # CH2_alkane2
297 50 2 0.0 -9.01367188 -2.63408399 15.1393604 # CH2_alkane3
298 50 2 0.0 -8.30681133 -3.47716498 16.2020283 # CH2_alkane4
299 50 2 0.0 -6.78738689 -3.36142206 16.0832577 # CH2_alkane5
300 50 1 0.0 -6.08108711 -4.17133284 17.1588554 # CH3_alkane6
301 51 1 0.0 11.0527039 -5.42565203 -14.2281141 # CH3_alkane1
302 51 2 0.0 11.1627369 -4.34579611 -15.2926149 # CH2_alkane2
303 51 2 0.0 10.3898697 -3.08812189 -14.8965874 # CH2_alkane3
304 51 2 0.0 10.4750795 -2.01665092 -15.9848852 # CH2_alkane4
305 51 2 0.0 9.73038578 -0.746676028 -15.5740967 # CH2_alkane5
306 51 1 0.0 9.84089661 0.333131999 -16.6387711 # CH3_alkane6
307 52 1 0.0 -19.1130123 1.15461504 3.30868793 # CH3_alkane1
308 52 2 0.0 -17.8673496 2.01845908 3.42470002 # CH2_alkane2
309 52 2 0.0 -16.7008362 1.24038601 4.03277397 # CH2_alkane3
310 52 2 0.0 -15.4595776 2.12221003 4.17895317 # CH2_alkane4
311 52 2 0.0 -14.2832422 1.33495998 4.75568819 # CH2_alkane5
312 52 1 0.0 -13.0375948 2.19909406 4.87128115 # CH3_alkane6
313 53 1 0.0 -13.9225979 -3.46566391 -14.1638012 # CH3_alkane1
314 53 2 0.0 -14.819005 -2.36353207 -13.6223993 # CH2_alkane2
315 53 2 0.0 -16.2245522 -2.88240695 -13.3205557 # CH2_alkane3
316 53 2 0.0 -17.1327972 -1.76345897 -12.8079634 # CH2_alkane4
317 53 2 0.0 -18.5285549 -2.2894249 -12.4742327 # CH2_alkane5
318 53 1 0.0 -19.4246483 -1.18701303 -11.9325418 # CH3_alkane6
319 54 1 0.0 -6.28997517 22.766634 -11.2199049 # CH3_alkane1
320 54 2 0.0 -6.20973587 22.1450577 -9.83478165 # CH2_alkane2
321 54 2 0.0 -4.89663792 21.3887768 -9.63548946 # CH2_alkane3
322 54 2 0.0 -4.834126 20.7367001 -8.25324726 # CH2_alkane4
323 54 2 0.0 -3.50688601 20.0088539 -8.0415287 # CH2_alkane5
324 54 1 0.0 -3.42687392 19.3876228 -6.65610504 # CH3_alkane6
325 55 1 0.0 -3.96364594 -8.15587234 -3.66952491 # CH3_alkane1
326 55 2 0.0 -4.77375793 -8.53400517 -2.43985295 # CH2_alkane2
327 55 2 0.0 -4.33193588 -7.73870802 -1.21176398 # CH2_alkane3
328 55 2 0.0 -5.12621689 -8.14592648 0.0304080006 # CH2_alkane4
329 55 2 0.0 -4.70763493 -7.32680798 1.25105798 # CH2_alkane5
330 55 1 0.0 -5.51821518 -7.70502186 2.480546 # CH3_alkane6
331 56 1 0.0 12.0031385 1.59484804 -7.6196332 # CH3_alkane1
332 56 2 0.0 12.9911757 1.44968104 -6.47330379 # CH2_alkane2
333 56 2 0.0 14.1774702 0.569016993 -6.86451101 # CH2_alkane3
334 56 2 0.0 15.1521721 0.397886008 -5.69816113 # CH2_alkane4
335 56 2 0.0 16.3552818 -0.454991013 -6.09975719 # CH2_alkane5
336 56 1 0.0 17.3433113 -0.599699974 -4.95320415 # CH3_alkane6
337 57 1 0.0 -16.6457424 1.59113097 19.0347672 # CH3_alkane1
338 57 2 0.0 -18.0976505 1.15689099 18.9132824 # CH2_alkane2
339 57 2 0.0 -19.0209732 2.35069609 18.6720142 # CH2_alkane3
340 57 2 0.0 -20.484211 1.91379201 18.5839558 # CH2_alkane4
341 57 2 0.0 -21.4038811 3.10324407 18.3090649 # CH2_alkane5
342 57 1 0.0 -22.8557606 2.66855788 18.1873322 # CH3_alkane6
343 58 1 0.0 24.3606377 -20.1218853 0.02764 # CH3_alkane1
344 58 2 0.0 23.0423241 -19.3675957 -0.0390920006 # CH2_alkane2
345 58 2 0.0 23.2646046 -17.8659649 -0.216875002 # CH2_alkane3
346 58 2 0.0 21.9370747 -17.1068287 -0.249777004 # CH2_alkane4
347 58 2 0.0 22.1581917 -15.6093369 -0.461387992 # CH2_alkane5
348 58 1 0.0 20.8395691 -14.8553629 -0.52837503 # CH3_alkane6
349 59 1 0.0 7.00272512 21.6142902 -6.32075691 # CH3_alkane1
350 59 2 0.0 6.88101292 20.2515507 -6.98369312 # CH2_alkane2
351 59 2 0.0 8.18456078 19.843998 -7.66967487 # CH2_alkane3
352 59 2 0.0 8.04782867 18.4879112 -8.36396408 # CH2_alkane4
353 59 2 0.0 9.36135197 18.0649872 -9.02118778 # CH2_alkane5
354 59 1 0.0 9.2393446 16.7019825 -9.68380547 # CH3_alkane6
355 60 1 0.0 -3.57505488 12.1746845 13.7048798 # CH3_alkane1
356 60 2 0.0 -2.65279293 12.0974989 14.9110451 # CH2_alkane2
357 60 2 0.0 -2.01512909 10.7145948 15.0409269 # CH2_alkane3
358 60 2 0.0 -1.114398 10.6306086 16.2743492 # CH2_alkane4
359 60 2 0.0 -0.450423986 9.25839615 16.385355 # CH2_alkane5
360 60 1 0.0 0.472054988 9.18167114 17.5915375 # CH3_alkane6
361 61 1 0.0 -24.4187737 24.2726879 -9.70701313 # CH3_alkane1
362 61 2 0.0 -23.4389496 23.6103001 -8.75174046 # CH2_alkane2
363 61 2 0.0 -21.9946308 23.7869396 -9.21933746 # CH2_alkane3
364 61 2 0.0 -21.0143757 23.0905533 -8.27390003 # CH2_alkane4
365 61 2 0.0 -19.5679264 23.2958355 -8.72311687 # CH2_alkane5
366 61 1 0.0 -18.5883083 22.6335297 -7.76738405 # CH3_alkane6
367 62 1 0.0 0.828307986 24.3372936 2.12974811 # CH3_alkane1
368 62 2 0.0 2.01343203 23.6221962 2.75861812 # CH2_alkane2
369 62 2 0.0 3.30407 24.4236317 2.59169793 # CH2_alkane3
370 62 2 0.0 4.49975204 23.6854229 3.1959281 # CH2_alkane4
371 62 2 0.0 5.7843709 24.5021954 3.05886292 # CH2_alkane5
372 62 1 0.0 6.96929789 23.7868824 3.68814993 # CH3_alkane6
373 63 1 0.0 -1.66025603 -2.69708109 13.8680754 # CH3_alkane1
374 63 2 0.0 -2.33285403 -3.42852402 12.7174397 # CH2_alkane2
375 63 2 0.0 -3.5262959 -4.25291109 13.199091 # CH2_alkane3
376 63 2 0.0 -4.1796689 -5.01375723 12.044137 # CH2_alkane4
377 63 2 0.0 -5.39349079 -5.81139803 12.5201168 # CH2_alkane5
378 63 1 0.0 -6.06605482 -6.54251289 11.369092 # CH3_alkane6
379 64 1 0.0 -18.5493069 -2.38218808 5.095613 # CH3_alkane1
380 64 2 0.0 -19.464653 -3.5944109 5.15897322 # CH2_alkane2
381 64 2 0.0 -19.061655 -4.65467882 4.13460493 # CH2_alkane3
382 64 2 0.0 -20.0050735 -5.857903 4.17837286 # CH2_alkane4
383 64 2 0.0 -19.5819569 -6.932693 3.17739797 # CH2_alkane5
384 64 1 0.0 -20.497406 -8.14496517 3.241256 # CH3_alkane6
385 65 1 0.0 -6.38587809 -24.4607811 -9.15329456 # CH3_alkane1
386 65 2 0.0 -5.07986212 -24.2201481 -8.41317463 # CH2_alkane2
387 65 2 0.0 -5.2332921 -24.4649448 -6.9123621 # CH2_alkane3
388 65 2 0.0 -3.92634296 -24.1893253 -6.16696405 # CH2_alkane4
389 65 2 0.0 -4.07061911 -24.4666386 -4.6708231 # CH2_alkane5
390 65 1 0.0 -2.76424789 -24.2261753 -3.93102694 # CH3_alkane6
391 66 1 0.0 -2.6349349 -16.3485775 -2.3764689 # CH3_alkane1
392 66 2 0.0 -2.64966798 -17.8313828 -2.04116201 # CH2_alkane2
393 66 2 0.0 -4.05678511 -18.4171886 -2.15411997 # CH2_alkane3
394 66 2 0.0 -4.07332706 -19.9011211 -1.78348196 # CH2_alkane4
395 66 2 0.0 -5.47421885 -20.4948139 -1.92902696 # CH2_alkane5
396 66 1 0.0 -5.48851109 -21.9777889 -1.59391105 # CH3_alkane6
397 67 1 0.0 18.5934219 -0.830617011 -19.1066399 # CH3_alkane1
398 67 2 0.0 19.4267521 0.409478009 -18.8254166 # CH2_alkane2
399 67 2 0.0 19.2925835 1.44034505 -19.9457817 # CH2_alkane3
400 67 2 0.0 20.1584778 2.67197204 -19.6755486 # CH2_alkane4
401 67 2 0.0 19.9982224 3.71712708 -20.7792339 # CH2_alkane5
402 67 1 0.0 20.8315125 4.95728111 -20.4975071 # CH3_alkane6
403 68 1 0.0 -0.949563026 -8.09537601 24.4635468 # CH3_alkane1
404 68 2 0.0 -1.44909501 -7.44038916 23.1857281 # CH2_alkane2
405 68 2 0.0 -0.478722006 -6.36908388 22.6891537 # CH2_alkane3
406 68 2 0.0 -1.000898 -5.68921804 21.4223385 # CH2_alkane4
407 68 2 0.0 -0.014614 -4.64147806 20.9069366 # CH2_alkane5
408 68 1 0.0 -0.514366984 -3.98687506 19.6288643 # CH3_alkane6
409 69 1 0.0 4.94223881 -16.2733536 -18.9131298 # CH3_alkane1
410 69 2 0.0 5.01610279 -16.0582523 -20.416338 # CH2_alkane2
411 69 2 0.0 3.80355191 -15.2835102 -20.9315071 # CH2_alkane3
412 69 2 0.0 3.86480904 -15.0984087 -22.4486389 # CH2_alkane4
413 69 2 0.0 2.66933107 -14.2945032 -22.9592438 # CH2_alkane5
414 69 1 0.0 2.74369001 -14.0793247 -24.4625397 # CH3_alkane6
415 70 1 0.0 -19.3292618 -11.0311098 6.87216711 # CH3_alkane1
416 70 2 0.0 -20.2276268 -11.8008146 7.82707691 # CH2_alkane2
417 70 2 0.0 -21.4710407 -12.3360262 7.11758614 # CH2_alkane3
418 70 2 0.0 -22.3886967 -13.0808153 8.08861637 # CH2_alkane4
419 70 2 0.0 -23.6153812 -13.6449385 7.37226105 # CH2_alkane5
420 70 1 0.0 -24.5134182 -14.4148827 8.32748032 # CH3_alkane6
421 71 1 0.0 -13.7751513 18.9796352 -6.57565498 # CH3_alkane1
422 71 2 0.0 -14.734354 19.3112984 -5.4437151 # CH2_alkane2
423 71 2 0.0 -15.7927427 18.2225761 -5.2693491 # CH2_alkane3
424 71 2 0.0 -16.7758522 18.5758591 -4.15203619 # CH2_alkane4
425 71 2 0.0 -17.8139286 17.4714012 -3.95525193 # CH2_alkane5
426 71 1 0.0 -18.7728348 17.8032894 -2.82296395 # CH3_alkane6
427 72 1 0.0 18.7229443 -11.8926239 -7.75670624 # CH3_alkane1
428 72 2 0.0 19.4991302 -10.5990591 -7.56806612 # CH2_alkane2
429 72 2 0.0 19.3829746 -10.0800591 -6.13521814 # CH2_alkane3
430 72 2 0.0 20.1372356 -8.76119232 -5.95806789 # CH2_alkane4
431 72 2 0.0 20.0491314 -8.25971699 -4.51691818 # CH2_alkane5
432 72 1 0.0 20.8257294 -6.96621418 -4.32856989 # CH3_alkane6
433 73 1 0.0 8.30056477 -5.04148102 2.51492405 # CH3_alkane1
434 73 2 0.0 8.64589405 -6.51466322 2.66271305 # CH2_alkane2
435 73 2 0.0 7.38982296 -7.37160492 2.81712198 # CH2_alkane3
436 73 2 0.0 7.74271297 -8.84876347 2.99925995 # CH2_alkane4
437 73 2 0.0 6.48563623 -9.70979214 3.11982894 # CH2_alkane5
438 73 1 0.0 6.83136606 -11.1830359 3.2673099 # CH3_alkane6
439 74 1 0.0 24.4136848 -11.6551762 4.59116888 # CH3_alkane1
440 74 2 0.0 23.6032257 -10.7507286 3.67656898 # CH2_alkane2
441 74 2 0.0 24.4437561 -9.58738041 3.15118098 # CH2_alkane3
442 74 2 0.0 23.6160336 -8.66121006 2.25855303 # CH2_alkane4
443 74 2 0.0 24.4652157 -7.51672602 1.70610702 # CH2_alkane5
444 74 1 0.0 23.6544552 -6.61260223 0.791254997 # CH3_alkane6
445 75 1 0.0 3.95911598 -11.9833374 0.402740002 # CH3_alkane1
446 75 2 0.0 2.79092097 -12.6498423 -0.306097001 # CH2_alkane2
447 75 2 0.0 2.42216492 -11.9124222 -1.59300697 # CH2_alkane3
448 75 2 0.0 1.22522998 -12.5661011 -2.28564906 # CH2_alkane4
449 75 2 0.0 0.877883017 -11.8488026 -3.58986712 # CH2_alkane5
450 75 1 0.0 -0.290233999 -12.5158062 -4.29862499 # CH3_alkane6
451 76 1 0.0 -24.1668644 -22.3605404 5.38907623 # CH3_alkane1
452 76 2 0.0 -22.6740456 -22.1126251 5.53532124 # CH2_alkane2
453 76 2 0.0 -21.9010468 -23.4223042 5.68737507 # CH2_alkane3
454 76 2 0.0 -20.4037228 -23.1671429 5.8679719 # CH2_alkane4
455 76 2 0.0 -19.6267548 -24.4780579 5.98617983 # CH2_alkane5
456 76 1 0.0 -18.1338482 -24.2297459 6.13211679 # CH3_alkane6
457 77 1 0.0 -1.53729606 -11.2485371 14.7608538 # CH3_alkane1
458 77 2 0.0 -0.994122982 -12.6545954 14.5625486 # CH2_alkane2
459 77 2 0.0 -1.93676698 -13.5042105 13.7107983 # CH2_alkane3
460 77 2 0.0 -1.40333796 -14.9277792 13.5416679 # CH2_alkane4
461 77 2 0.0 -2.32919693 -15.7674427 12.6619511 # CH2_alkane5
462 77 1 0.0 -1.78551996 -17.1734314 12.4636059 # CH3_alkane6
463 78 1 0.0 -4.62054777 23.9992104 3.88751507 # CH3_alkane1
464 78 2 0.0 -3.39590001 23.1413937 4.1627388 # CH2_alkane2
465 78 2 0.0 -3.23406792 22.0428505 3.1125381 # CH2_alkane3
466 78 2 0.0 -2.02034807 21.1613083 3.41164589 # CH2_alkane4
467 78 2 0.0 -1.83908498 20.0837746 2.34290004 # CH2_alkane5
468 78 1 0.0 -0.614094019 19.2262897 2.61830401 # CH3_alkane6
469 79 1 0.0 -23.7670135 -19.2682552 -3.91433501 # CH3_alkane1
470 79 2 0.0 -22.8192921 -20.2754211 -3.28282905 # CH2_alkane2
471 79 2 0.0 -21.411541 -20.1625576 -3.8671279 # CH2_alkane3
472 79 2 0.0 -20.4694252 -21.1997051 -3.2535789 # CH2_alkane4
473 79 2 0.0 -19.0536137 -21.0645485 -3.81336308 # CH2_alkane5
474 79 1 0.0 -18.106041 -22.0717335 -3.18137097 # CH3_alkane6
475 80 1 0.0 -13.6218939 19.2840328 14.0555487 # CH3_alkane1
476 80 2 0.0 -12.211998 18.7862148 13.7803612 # CH2_alkane2
477 80 2 0.0 -11.8910332 17.5340271 14.5957851 # CH2_alkane3
478 80 2 0.0 -10.4604998 17.0558224 14.3416281 # CH2_alkane4