LAMMPS data file
# Generated via moleculegraph
# Use if there are more then one bond style or dihedral style

2 atom types
2 bond types
2 angle types
2 dihedral types

3000 atoms
2500 bonds
2000 angles
1500 dihedrals

-24.391701903589357 24.391701903589357 xlo xhi
-24.391701903589357 24.391701903589357 ylo yhi
-24.391701903589357 24.391701903589357 zlo zhi

Masses

1 15.035 # CH3_alkane
2 14.027 # CH2_alkane

# Elements

Bond Coeffs

1 1000.0 1.74 # CH3_alkane CH2_alkane
2 1000.0 1.54 # CH2_alkane CH2_alkane

Angle Coeffs

1 62.1001 114.0 # CH2_alkane CH2_alkane CH3_alkane
2 62.1001 114.0 # CH2_alkane CH2_alkane CH2_alkane

Dihedral Coeffs

1 1.411 -0.271 3.145 0.0 # CH2_alkane CH2_alkane CH2_alkane CH3_alkane
2 1.411 -0.271 3.145 0.0 # CH2_alkane CH2_alkane CH2_alkane CH2_alkane

Atoms

1 1 1 0.0 9.3589077 -8.60852623 5.57526016 # CH3_alkane1
2 1 2 0.0 10.1606693 -7.48772621 4.93311787 # CH2_alkane2
3 1 2 0.0 10.3064394 -7.69575596 3.42600799 # CH2_alkane3
4 1 2 0.0 11.142004 -6.58415318 2.78892493 # CH2_alkane4
5 1 2 0.0 11.2593136 -6.7740612 1.27686501 # CH2_alkane5
6 1 1 0.0 12.0609331 -5.65284586 0.63498199 # CH3_alkane6
7 2 1 0.0 16.5351124 21.6269131 14.5021162 # CH3_alkane1
8 2 2 0.0 15.6993322 22.3717022 15.5307646 # CH2_alkane2
9 2 2 0.0 15.1184177 21.419714 16.5758305 # CH2_alkane3
10 2 2 0.0 14.250865 22.1680279 17.5892811 # CH2_alkane4
11 2 2 0.0 13.6975222 21.221035 18.6537838 # CH2_alkane5
12 2 1 0.0 12.861989 21.9662628 19.6824951 # CH3_alkane6
13 3 1 0.0 0.704801977 -22.3495865 7.06287003 # CH3_alkane1
14 3 2 0.0 2.01643109 -21.6409473 7.36089802 # CH2_alkane2
15 3 2 0.0 3.20244789 -22.3687077 6.72873211 # CH2_alkane3
16 3 2 0.0 4.5233922 -21.6716995 7.05886507 # CH2_alkane4
17 3 2 0.0 5.70590115 -22.3802586 6.39873695 # CH2_alkane5
18 3 1 0.0 7.01740694 -21.6711254 6.69675112 # CH3_alkane6
19 4 1 0.0 18.9898281 4.60739613 22.3915501 # CH3_alkane1
20 4 2 0.0 18.5231819 3.34143496 21.6908779 # CH2_alkane2
21 4 2 0.0 19.0471401 2.08807707 22.3912106 # CH2_alkane3
22 4 2 0.0 18.6035385 0.817578971 21.6640568 # CH2_alkane4
23 4 2 0.0 19.0992889 -0.436508 22.3835373 # CH2_alkane5
24 4 1 0.0 18.6321697 -1.70235503 21.6827106 # CH3_alkane6
25 5 1 0.0 18.7954674 -22.2590752 -18.9078102 # CH3_alkane1
26 5 2 0.0 19.1375237 -20.8600712 -18.4208374 # CH2_alkane2
27 5 2 0.0 20.2743225 -20.2453632 -19.2367573 # CH2_alkane3
28 5 2 0.0 20.6381664 -18.8515453 -18.722374 # CH2_alkane4
29 5 2 0.0 21.7519913 -18.2233353 -19.5595722 # CH2_alkane5
30 5 1 0.0 22.0935936 -16.8241348 -19.0724678 # CH3_alkane6
31 6 1 0.0 2.23264289 -18.3507671 -22.3642864 # CH3_alkane1
32 6 2 0.0 3.74684596 -18.4861221 -22.3491554 # CH2_alkane2
33 6 2 0.0 4.43137407 -17.119627 -22.352951 # CH2_alkane3
34 6 2 0.0 5.95440483 -17.2600746 -22.3717175 # CH2_alkane4
35 6 2 0.0 6.63901091 -15.893857 -22.3414135 # CH2_alkane5
36 6 1 0.0 8.15329647 -16.0296173 -22.325983 # CH3_alkane6
37 7 1 0.0 -9.83161163 16.4094467 -6.13044405 # CH3_alkane1
38 7 2 0.0 -9.7051363 16.2470341 -4.62412882 # CH2_alkane2
39 7 2 0.0 -9.29272747 14.824542 -4.24684811 # CH2_alkane3
40 7 2 0.0 -9.19930267 14.6560459 -2.7294209 # CH2_alkane4
41 7 2 0.0 -8.75415993 13.2430267 -2.35342193 # CH2_alkane5
42 7 1 0.0 -8.62749386 13.0810614 -0.846952021 # CH3_alkane6
43 8 1 0.0 7.86561203 21.8443108 -5.9081068 # CH3_alkane1
44 8 2 0.0 6.66285896 22.0550327 -6.81383324 # CH2_alkane2
45 8 2 0.0 5.50071383 21.1425877 -6.42297792 # CH2_alkane3
46 8 2 0.0 4.30467176 21.3334141 -7.3572011 # CH2_alkane4
47 8 2 0.0 3.1306951 20.4453888 -6.94569302 # CH2_alkane5
48 8 1 0.0 1.92794597 20.6566124 -7.851511 # CH3_alkane6
49 9 1 0.0 -10.7359486 21.8886852 -10.9847851 # CH3_alkane1
50 9 2 0.0 -10.7913303 22.2408733 -9.50686169 # CH2_alkane2
51 9 2 0.0 -10.3927107 21.0523453 -8.63255787 # CH2_alkane3
52 9 2 0.0 -10.4820929 21.4003296 -7.14574289 # CH2_alkane4
53 9 2 0.0 -10.0510798 20.2224178 -6.27229977 # CH2_alkane5
54 9 1 0.0 -10.1063013 20.5750885 -4.79436207 # CH3_alkane6
55 10 1 0.0 -7.99928522 15.6478367 12.1656647 # CH3_alkane1
56 10 2 0.0 -8.4090519 14.6183176 11.124732 # CH2_alkane2
57 10 2 0.0 -9.82441521 14.8761959 10.6088343 # CH2_alkane3
58 10 2 0.0 -10.2455521 13.8189707 9.5867672 # CH2_alkane4
59 10 2 0.0 -11.6479836 14.0962276 9.04596615 # CH2_alkane5
60 10 1 0.0 -12.0573206 13.0666208 8.00477505 # CH3_alkane6
61 11 1 0.0 -11.9379482 -21.7603512 19.9310532 # CH3_alkane1
62 11 2 0.0 -10.7372103 -22.3717022 20.6352119 # CH2_alkane2
63 11 2 0.0 -9.50720501 -21.4707203 20.5292625 # CH2_alkane3
64 11 2 0.0 -8.29271698 -22.104496 21.2097397 # CH2_alkane4
65 11 2 0.0 -7.07162189 -21.1884193 21.1330414 # CH2_alkane5
66 11 1 0.0 -5.87108612 -21.7999973 21.8376083 # CH3_alkane6
67 12 1 0.0 8.21202564 3.25378394 -4.69130182 # CH3_alkane1
68 12 2 0.0 8.16712856 1.74767196 -4.89371395 # CH2_alkane2
69 12 2 0.0 6.7378931 1.21323097 -4.80674314 # CH2_alkane3
70 12 2 0.0 6.7005291 -0.306378007 -4.97731209 # CH2_alkane4
71 12 2 0.0 5.26800203 -0.83664 -4.92402411 # CH2_alkane5
72 12 1 0.0 5.22346306 -2.34283805 -5.12678719 # CH3_alkane6
73 13 1 0.0 -12.7488775 -12.7681551 16.7756023 # CH3_alkane1
74 13 2 0.0 -13.3566799 -12.216713 15.4958191 # CH2_alkane2
75 13 2 0.0 -12.4027843 -11.2508316 14.7936344 # CH2_alkane3
76 13 2 0.0 -13.0308666 -10.6724148 13.5245209 # CH2_alkane4
77 13 2 0.0 -12.0641708 -9.7326231 12.804491 # CH2_alkane5
78 13 1 0.0 -12.6722345 -9.18157387 11.524518 # CH3_alkane6
79 14 1 0.0 16.0589886 12.30231 22.3488884 # CH3_alkane1
80 14 2 0.0 17.4915295 12.8112917 22.3377762 # CH2_alkane2
81 14 2 0.0 18.4954433 11.6589308 22.3489399 # CH2_alkane3
82 14 2 0.0 19.9351311 12.1751499 22.3717308 # CH2_alkane4
83 14 2 0.0 20.9391842 11.0229759 22.3487949 # CH2_alkane5
84 14 1 0.0 22.3717041 11.5323696 22.3373833 # CH3_alkane6
85 15 1 0.0 -6.35048914 21.7774487 -5.94887209 # CH3_alkane1
86 15 2 0.0 -4.99356413 22.3717022 -6.29089117 # CH2_alkane2
87 15 2 0.0 -3.88066506 21.7476082 -5.44954109 # CH2_alkane3
88 15 2 0.0 -2.52204704 22.3717022 -5.77259779 # CH2_alkane4
89 15 2 0.0 -1.40444899 21.7240696 -4.95546913 # CH2_alkane5
90 15 1 0.0 -0.0475489981 22.3183975 -5.29799223 # CH3_alkane6
91 16 1 0.0 -9.38222885 -6.47609901 -0.606199026 # CH3_alkane1
92 16 2 0.0 -10.0682259 -5.80475616 0.572812021 # CH2_alkane2
93 16 2 0.0 -10.8940153 -4.59822989 0.127534002 # CH2_alkane3
94 16 2 0.0 -11.5553122 -3.90556908 1.32026601 # CH2_alkane4
95 16 2 0.0 -12.4082479 -2.71935296 0.871327996 # CH2_alkane5
96 16 1 0.0 -13.0943737 -2.04840112 2.05064201 # CH3_alkane6
97 17 1 0.0 -18.2302284 -7.0878582 -14.6102991 # CH3_alkane1
98 17 2 0.0 -16.8577576 -6.81030178 -15.2024527 # CH2_alkane2
99 17 2 0.0 -16.9222431 -5.7334938 -16.2851486 # CH2_alkane3
100 17 2 0.0 -15.5454054 -5.48107386 -16.9018364 # CH2_alkane4
101 17 2 0.0 -15.6039753 -4.38048983 -17.9608154 # CH2_alkane5
102 17 1 0.0 -14.2311897 -4.1029768 -18.5525703 # CH3_alkane6
103 18 1 0.0 -19.7137547 -8.72035694 -22.3496933 # CH3_alkane1
104 18 2 0.0 -19.6485615 -7.20148087 -22.3385239 # CH2_alkane2
105 18 2 0.0 -21.0452042 -6.58084917 -22.3490238 # CH2_alkane3
106 18 2 0.0 -20.9752121 -5.05301189 -22.3717575 # CH2_alkane4
107 18 2 0.0 -22.3717022 -4.43219614 -22.3481579 # CH2_alkane5
108 18 1 0.0 -22.3061085 -2.91321802 -22.3366871 # CH3_alkane6
109 19 1 0.0 -0.596916974 -7.5815239 -2.50872707 # CH3_alkane1
110 19 2 0.0 -1.60501695 -7.96117687 -1.43589902 # CH2_alkane2
111 19 2 0.0 -1.85566497 -9.46864891 -1.41120005 # CH2_alkane3
112 19 2 0.0 -2.89531398 -9.84278202 -0.353439003 # CH2_alkane4
113 19 2 0.0 -3.12094092 -11.353735 -0.305833012 # CH2_alkane5
114 19 1 0.0 -4.12893486 -11.7330694 0.767377019 # CH3_alkane6
115 20 1 0.0 16.2158775 19.7401695 -5.27494478 # CH3_alkane1
116 20 2 0.0 17.4519081 18.8694363 -5.4343462 # CH2_alkane2
117 20 2 0.0 18.6732159 19.6979523 -5.83168507 # CH2_alkane3
118 20 2 0.0 19.9067822 18.8141727 -6.02389622 # CH2_alkane4
119 20 2 0.0 21.1357193 19.6467094 -6.38824177 # CH2_alkane5
120 20 1 0.0 22.3717003 18.7756252 -6.54727697 # CH3_alkane6
121 21 1 0.0 -16.6566029 -7.19226789 -9.72744465 # CH3_alkane1
122 21 2 0.0 -16.3443489 -8.1276989 -10.8845224 # CH2_alkane2
123 21 2 0.0 -17.3474598 -9.27827835 -10.9609499 # CH2_alkane3
124 21 2 0.0 -17.0103607 -10.2355251 -12.1053896 # CH2_alkane4
125 21 2 0.0 -18.0328579 -11.3674145 -12.2027397 # CH2_alkane5
126 21 1 0.0 -17.7204361 -12.3025322 -13.3601828 # CH3_alkane6
127 22 1 0.0 -19.0439644 17.7817631 14.0834446 # CH3_alkane1
128 22 2 0.0 -17.8727932 18.5432796 13.4836025 # CH2_alkane2
129 22 2 0.0 -18.3480034 19.6950054 12.5983877 # CH2_alkane3
130 22 2 0.0 -17.1676426 20.4377003 11.9700127 # CH2_alkane4
131 22 2 0.0 -17.6419334 21.6101894 11.1118326 # CH2_alkane5
132 22 1 0.0 -16.4704113 22.3717022 10.5123634 # CH3_alkane6
133 23 1 0.0 21.5218124 -22.3709297 19.8802032 # CH3_alkane1
134 23 2 0.0 22.3717022 -22.3049316 18.6213589 # CH2_alkane2
135 23 2 0.0 21.510849 -22.371706 17.3602562 # CH2_alkane3
136 23 2 0.0 22.3717041 -22.3389721 16.0963116 # CH2_alkane4
137 23 2 0.0 21.5088673 -22.3717022 14.8351221 # CH2_alkane5
138 23 1 0.0 22.3591328 -22.3053799 13.5764008 # CH3_alkane6
139 24 1 0.0 13.4540272 -13.9330101 -5.11181688 # CH3_alkane1
140 24 2 0.0 14.7977657 -13.2237911 -5.16409016 # CH2_alkane2
141 24 2 0.0 15.9499159 -14.2170429 -5.31209612 # CH2_alkane3
142 24 2 0.0 17.3021221 -13.5022669 -5.33045292 # CH2_alkane4
143 24 2 0.0 18.4519596 -14.4926891 -5.51236391 # CH2_alkane5
144 24 1 0.0 19.7956009 -13.7830429 -5.56489801 # CH3_alkane6
145 25 1 0.0 9.31041431 10.9446812 -4.70929623 # CH3_alkane1
146 25 2 0.0 8.26113796 11.1598616 -5.78821898 # CH2_alkane2
147 25 2 0.0 6.85399389 10.8702374 -5.26671124 # CH2_alkane3
148 25 2 0.0 5.80463505 11.0552378 -6.36412716 # CH2_alkane4
149 25 2 0.0 4.39438391 10.7983761 -5.83368587 # CH2_alkane5
150 25 1 0.0 3.34528303 11.0139589 -6.91286898 # CH3_alkane6
151 26 1 0.0 -9.96794319 -3.78850102 -21.9867954 # CH3_alkane1
152 26 2 0.0 -10.4232283 -3.93751407 -20.5439262 # CH2_alkane2
153 26 2 0.0 -9.28265572 -3.65981698 -19.5652103 # CH2_alkane3
154 26 2 0.0 -9.73574638 -3.84355497 -18.1158485 # CH2_alkane4
155 26 2 0.0 -8.60438156 -3.5330379 -17.1361828 # CH2_alkane5
156 26 1 0.0 -9.06014347 -3.68187094 -15.6933184 # CH3_alkane6
157 27 1 0.0 -9.68056297 -21.1988754 -11.7546101 # CH3_alkane1
158 27 2 0.0 -10.0911093 -21.2549953 -10.291851 # CH2_alkane2
159 27 2 0.0 -9.9183836 -19.8984985 -9.60921574 # CH2_alkane3
160 27 2 0.0 -10.3004408 -19.9672642 -8.12968731 # CH2_alkane4
161 27 2 0.0 -10.1598444 -18.6028614 -7.45530605 # CH2_alkane5
162 27 1 0.0 -10.5707893 -18.6592979 -5.99254608 # CH3_alkane6
163 28 1 0.0 -3.45072007 -4.09411001 14.8950319 # CH3_alkane1
164 28 2 0.0 -4.65667391 -3.89623809 15.7994003 # CH2_alkane2
165 28 2 0.0 -4.44307518 -2.7368679 16.7720985 # CH2_alkane3
166 28 2 0.0 -5.64450693 -2.56243396 17.7026005 # CH2_alkane4
167 28 2 0.0 -5.44498682 -1.38183999 18.6526241 # CH2_alkane5
168 28 1 0.0 -6.6513381 -1.18406999 19.5566883 # CH3_alkane6
169 29 1 0.0 -13.4615011 17.8674622 20.2151661 # CH3_alkane1
170 29 2 0.0 -12.1212044 18.3723831 20.7250843 # CH2_alkane2
171 29 2 0.0 -12.1679258 19.8678684 21.0369263 # CH2_alkane3
172 29 2 0.0 -10.8087111 20.3789597 21.5175724 # CH2_alkane4
173 29 2 0.0 -10.864398 21.8671684 21.8615017 # CH2_alkane5
174 29 1 0.0 -9.52392578 22.3717022 22.3717022 # CH3_alkane6
175 30 1 0.0 0.575972974 -18.8897114 22.3663921 # CH3_alkane1
176 30 2 0.0 1.56886399 -17.884409 21.8052368 # CH2_alkane2
177 30 2 0.0 2.97097492 -18.1060085 22.3717041 # CH2_alkane3
178 30 2 0.0 3.95972204 -17.0718956 21.8306904 # CH2_alkane4
179 30 2 0.0 5.36877918 -17.3142757 22.3710251 # CH2_alkane5
180 30 1 0.0 6.36151981 -16.3089104 21.8093872 # CH3_alkane6
181 31 1 0.0 -13.0414658 -16.7266178 -3.55513692 # CH3_alkane1
182 31 2 0.0 -14.2619247 -17.6331387 -3.56270695 # CH2_alkane2
183 31 2 0.0 -13.8751059 -19.0950623 -3.34121799 # CH2_alkane3
184 31 2 0.0 -15.1017723 -20.0078831 -3.38306093 # CH2_alkane4
185 31 2 0.0 -14.7189407 -21.4654598 -3.12798405 # CH2_alkane5
186 31 1 0.0 -15.9397593 -22.3717022 -3.1353271 # CH3_alkane6
187 32 1 0.0 15.4432869 -0.795333982 -5.08227921 # CH3_alkane1
188 32 2 0.0 14.4063282 -1.79457998 -5.5697031 # CH2_alkane2
189 32 2 0.0 13.0967798 -1.10324895 -5.94792604 # CH2_alkane3
190 32 2 0.0 12.045145 -2.11524796 -6.40577412 # CH2_alkane4
191 32 2 0.0 10.7468939 -1.42069602 -6.81601095 # CH2_alkane5
192 32 1 0.0 9.71020985 -2.42028403 -7.30369377 # CH3_alkane6
193 33 1 0.0 17.9186325 -4.90946388 -6.25419998 # CH3_alkane1
194 33 2 0.0 19.3310299 -5.29066896 -6.66793489 # CH2_alkane2
195 33 2 0.0 19.4338837 -6.77795982 -7.00452518 # CH2_alkane3
196 33 2 0.0 20.8634129 -7.16436195 -7.38772583 # CH2_alkane4
197 33 2 0.0 20.9591427 -8.64446831 -7.75688124 # CH2_alkane5
198 33 1 0.0 22.3717022 -9.02526665 -8.17087841 # CH3_alkane6
199 34 1 0.0 -22.3659439 15.8342924 -7.3924489 # CH3_alkane1
200 34 2 0.0 -21.8270798 14.4127426 -7.37897015 # CH2_alkane2
201 34 2 0.0 -22.3717022 13.5961952 -8.55052471 # CH2_alkane3
202 34 2 0.0 -21.8539314 12.1573353 -8.51450443 # CH2_alkane4
203 34 2 0.0 -22.3717022 11.350316 -9.70479298 # CH2_alkane5
204 34 1 0.0 -21.8323574 9.92882061 -9.69114876 # CH3_alkane6
205 35 1 0.0 11.163682 14.4856739 -3.41791892 # CH3_alkane1
206 35 2 0.0 11.5162096 15.2851391 -4.6620822 # CH2_alkane2
207 35 2 0.0 10.5766592 14.9586391 -5.82249022 # CH2_alkane3
208 35 2 0.0 10.9552927 15.7397346 -7.08194494 # CH2_alkane4
209 35 2 0.0 9.99518204 15.4385691 -8.23243999 # CH2_alkane5
210 35 1 0.0 10.3478546 16.2384872 -9.47641754 # CH3_alkane6
211 36 1 0.0 -0.0770289972 10.419014 -10.7995443 # CH3_alkane1
212 36 2 0.0 -0.160184994 10.8388577 -9.34071827 # CH2_alkane2
213 36 2 0.0 -1.34127498 10.1751223 -8.63333797 # CH2_alkane3
214 36 2 0.0 -1.44153905 10.625946 -7.17511702 # CH2_alkane4
215 36 2 0.0 -2.60229897 9.93637371 -6.45868301 # CH2_alkane5
216 36 1 0.0 -2.68496704 10.3562527 -4.99971199 # CH3_alkane6
217 37 1 0.0 -0.217882007 2.85008001 -0.739989996 # CH3_alkane1
218 37 2 0.0 -1.31743205 3.02240205 -1.77567995 # CH2_alkane2
219 37 2 0.0 -2.53882694 2.16574311 -1.44365895 # CH2_alkane3
220 37 2 0.0 -3.62943101 2.31605697 -2.5055871 # CH2_alkane4
221 37 2 0.0 -4.86394882 1.48547602 -2.15594292 # CH2_alkane5
222 37 1 0.0 -5.96347189 1.65829098 -3.19175792 # CH3_alkane6
223 38 1 0.0 -20.4483719 10.8961945 7.24104881 # CH3_alkane1
224 38 2 0.0 -19.1457253 10.8071051 6.46224213 # CH2_alkane2
225 38 2 0.0 -18.9130325 9.39747715 5.91937113 # CH2_alkane3
226 38 2 0.0 -17.585537 9.30352211 5.16529417 # CH2_alkane4
227 38 2 0.0 -17.368927 7.9026432 4.59365511 # CH2_alkane5
228 38 1 0.0 -16.0662537 7.81400299 3.81461096 # CH3_alkane6
229 39 1 0.0 -0.34117499 -22.3687592 -19.2175694 # CH3_alkane1
230 39 2 0.0 0.893828988 -22.3717003 -20.1042004 # CH2_alkane2
231 39 2 0.0 2.1781261 -22.3685551 -19.2756615 # CH2_alkane3
232 39 2 0.0 3.41799402 -22.3375111 -20.170908 # CH2_alkane4
233 39 2 0.0 4.70236588 -22.3684635 -19.3429089 # CH2_alkane5
234 39 1 0.0 5.93723583 -22.3717003 -20.2299328 # CH3_alkane6
235 40 1 0.0 -3.37402105 9.67258739 -22.2882557 # CH3_alkane1
236 40 2 0.0 -2.9959271 8.20240307 -22.3716984 # CH2_alkane2
237 40 2 0.0 -3.93400311 7.33440781 -21.5335445 # CH2_alkane3
238 40 2 0.0 -3.53009009 5.86029482 -21.5930977 # CH2_alkane4
239 40 2 0.0 -4.48825407 4.98822308 -20.7821922 # CH2_alkane5
240 40 1 0.0 -4.11000586 3.5179801 -20.8661194 # CH3_alkane6
241 41 1 0.0 -17.6594143 -5.42543602 -5.25423098 # CH3_alkane1
242 41 2 0.0 -18.8126297 -4.63260984 -5.84826803 # CH2_alkane2
243 41 2 0.0 -19.4243145 -5.34977722 -7.05135584 # CH2_alkane3
244 41 2 0.0 -20.5620461 -4.53330994 -7.66670513 # CH2_alkane4
245 41 2 0.0 -21.1957607 -5.26604414 -8.84893131 # CH2_alkane5
246 41 1 0.0 -22.3492031 -4.47301102 -9.44256115 # CH3_alkane6
247 42 1 0.0 14.3540897 9.13054943 5.16074514 # CH3_alkane1
248 42 2 0.0 14.5002136 10.6433134 5.12135696 # CH2_alkane2
249 42 2 0.0 15.920042 11.0784502 5.48281384 # CH2_alkane3
250 42 2 0.0 16.0542488 12.6021395 5.47491407 # CH2_alkane4
251 42 2 0.0 17.4825344 13.0360441 5.80335903 # CH2_alkane5
252 42 1 0.0 17.6283646 14.5489483 5.76357889 # CH3_alkane6
253 43 1 0.0 0.243416995 -7.84197807 7.03651714 # CH3_alkane1
254 43 2 0.0 1.76299906 -7.88659716 7.02104902 # CH2_alkane2
255 43 2 0.0 2.32628989 -7.33274078 5.7126708 # CH2_alkane3
256 43 2 0.0 3.85371399 -7.41039181 5.68719482 # CH2_alkane4
257 43 2 0.0 4.4185009 -6.82553196 4.39293623 # CH2_alkane5
258 43 1 0.0 5.93821192 -6.87004423 4.37794924 # CH3_alkane6
259 44 1 0.0 9.68187141 8.32174397 -17.3091278 # CH3_alkane1
260 44 2 0.0 10.2092113 9.74672413 -17.2571144 # CH2_alkane2
261 44 2 0.0 11.7217722 9.77659225 -17.0399227 # CH2_alkane3
262 44 2 0.0 12.2435932 11.2119007 -16.9545059 # CH2_alkane4
263 44 2 0.0 13.760704 11.2417908 -16.7711105 # CH2_alkane5
264 44 1 0.0 14.2877588 12.667017 -16.7194386 # CH3_alkane6
265 45 1 0.0 -17.4847755 17.0673923 19.3730965 # CH3_alkane1
266 45 2 0.0 -17.0272121 15.7887363 18.6896973 # CH2_alkane2
267 45 2 0.0 -17.875042 15.4785366 17.4564629 # CH2_alkane3
268 45 2 0.0 -17.4333668 14.1739349 16.7911491 # CH2_alkane4
269 45 2 0.0 -18.2591858 13.8813448 15.5387249 # CH2_alkane5
270 45 1 0.0 -17.8011131 12.6026983 14.8553791 # CH3_alkane6
271 46 1 0.0 10.9761 -3.25812292 -22.3717022 # CH3_alkane1
272 46 2 0.0 12.3929396 -2.7222631 -22.2421703 # CH2_alkane2
273 46 2 0.0 12.5507641 -1.85179901 -20.9958611 # CH2_alkane3
274 46 2 0.0 13.968214 -1.28726101 -20.8870678 # CH2_alkane4
275 46 2 0.0 14.1353302 -0.444400012 -19.6230221 # CH2_alkane5
276 46 1 0.0 15.5524607 0.0910750031 -19.49366 # CH3_alkane6
277 47 1 0.0 -12.0254288 2.96279597 -9.49934292 # CH3_alkane1
278 47 2 0.0 -10.6020918 3.18392301 -9.98573017 # CH2_alkane2
279 47 2 0.0 -10.5557003 3.41417003 -11.4959421 # CH2_alkane3
280 47 2 0.0 -9.11916542 3.602705 -11.9863739 # CH2_alkane4
281 47 2 0.0 -9.07569313 3.86650705 -13.4912558 # CH2_alkane5
282 47 1 0.0 -7.65213823 4.08790016 -13.9772663 # CH3_alkane6
283 48 1 0.0 -8.00920868 -18.0655098 -17.5673828 # CH3_alkane1
284 48 2 0.0 -9.11280632 -17.1031399 -17.9763794 # CH2_alkane2
285 48 2 0.0 -8.55244446 -15.7256241 -18.3290119 # CH2_alkane3
286 48 2 0.0 -9.66879368 -14.7508068 -18.7074261 # CH2_alkane4
287 48 2 0.0 -9.1055584 -13.3831186 -19.0925865 # CH2_alkane5
288 48 1 0.0 -10.2094822 -12.4210434 -19.5018387 # CH3_alkane6
289 49 1 0.0 15.5997744 16.4287586 2.60354209 # CH3_alkane1
290 49 2 0.0 15.536272 17.5254726 3.65451694 # CH2_alkane2
291 49 2 0.0 16.0752697 18.8500137 3.11509299 # CH2_alkane3
292 49 2 0.0 16.0409985 19.9421501 4.18549585 # CH2_alkane4
293 49 2 0.0 16.5485001 21.2750816 3.63605189 # CH2_alkane5
294 49 1 0.0 16.4845657 22.3716965 4.68727779 # CH3_alkane6
295 50 1 0.0 -0.930974007 -6.60877895 -6.31651402 # CH3_alkane1
296 50 2 0.0 -1.38644195 -5.21795511 -6.72824001 # CH2_alkane2
297 50 2 0.0 -2.87766194 -5.19294786 -7.06222296 # CH2_alkane3
298 50 2 0.0 -3.32487297 -3.79984808 -7.50829315 # CH2_alkane4
299 50 2 0.0 -4.82292604 -3.76698208 -7.80980396 # CH2_alkane5
300 50 1 0.0 -5.27812195 -2.37584901 -8.22122955 # CH3_alkane6
301 51 1 0.0 14.0734444 15.8662643 7.2338829 # CH3_alkane1
302 51 2 0.0 13.6291399 15.0432749 8.43248367 # CH2_alkane2
303 51 2 0.0 12.6535215 13.9400873 8.02376747 # CH2_alkane3
304 51 2 0.0 12.1828384 13.1358147 9.23674107 # CH2_alkane4
305 51 2 0.0 11.233531 12.0113611 8.82373714 # CH2_alkane5
306 51 1 0.0 10.7896461 11.1883469 10.0226278 # CH3_alkane6
307 52 1 0.0 22.3717136 22.371767 21.8172321 # CH3_alkane1
308 52 2 0.0 21.6413975 21.1590004 22.3714848 # CH2_alkane2
309 52 2 0.0 22.2151623 19.8566666 21.8141479 # CH2_alkane3
310 52 2 0.0 21.4561691 18.6406364 22.3479118 # CH2_alkane4
311 52 2 0.0 22.0514698 17.3368435 21.8169746 # CH2_alkane5
312 52 1 0.0 21.3210506 16.1242085 22.3717079 # CH3_alkane6
313 53 1 0.0 -3.70244193 -2.38228893 -15.0148964 # CH3_alkane1
314 53 2 0.0 -2.77970505 -3.54884195 -15.3296509 # CH2_alkane2
315 53 2 0.0 -3.48685002 -4.61120176 -16.1706295 # CH2_alkane3
316 53 2 0.0 -2.56588888 -5.79849577 -16.4567566 # CH2_alkane4
317 53 2 0.0 -3.26220202 -6.84522676 -17.3260403 # CH2_alkane5
318 53 1 0.0 -2.33901095 -8.01155853 -17.6408634 # CH3_alkane6
319 54 1 0.0 7.86984682 16.5502205 17.8862953 # CH3_alkane1
320 54 2 0.0 8.99473095 17.5545273 17.6929989 # CH2_alkane2
321 54 2 0.0 8.45250225 18.9574432 17.4214916 # CH2_alkane3
322 54 2 0.0 9.58673382 19.9582329 17.1942368 # CH2_alkane4
323 54 2 0.0 9.04514122 21.3675499 16.9562187 # CH2_alkane5
324 54 1 0.0 10.1703815 22.3717022 16.7632504 # CH3_alkane6
325 55 1 0.0 -20.0085983 -22.3715363 5.52391911 # CH3_alkane1
326 55 2 0.0 -18.5412865 -22.3717003 5.12597799 # CH2_alkane2
327 55 2 0.0 -17.6285172 -22.3713493 6.35184717 # CH2_alkane3
328 55 2 0.0 -16.1536694 -22.3375015 5.94764423 # CH2_alkane4
329 55 2 0.0 -15.2406044 -22.3712425 7.17292976 # CH2_alkane5
330 55 1 0.0 -13.7732801 -22.3717022 6.77457285 # CH3_alkane6
331 56 1 0.0 4.8119092 -11.8640909 -22.3717022 # CH3_alkane1
332 56 2 0.0 6.13374805 -11.5371189 -21.6955433 # CH2_alkane2
333 56 2 0.0 5.92953205 -11.1162395 -20.2405319 # CH2_alkane3
334 56 2 0.0 7.25808382 -10.7557793 -19.573658 # CH2_alkane4
335 56 2 0.0 7.05750895 -10.3674173 -18.1090431 # CH2_alkane5
336 56 1 0.0 8.379673 -10.0407848 -17.4330845 # CH3_alkane6
337 57 1 0.0 -18.4230919 7.43433523 -12.5908146 # CH3_alkane1
338 57 2 0.0 -17.7416725 8.09887505 -13.7763166 # CH2_alkane2
339 57 2 0.0 -17.9781113 7.31757689 -15.0684376 # CH2_alkane3
340 57 2 0.0 -17.2632256 7.97067881 -16.2525406 # CH2_alkane4
341 57 2 0.0 -17.5274467 7.20823812 -17.5506248 # CH2_alkane5
342 57 1 0.0 -16.8460789 7.87327623 -18.7360325 # CH3_alkane6
343 58 1 0.0 -22.3675938 8.06509304 -6.22122717 # CH3_alkane1
344 58 2 0.0 -22.3349438 8.65336704 -4.81971788 # CH2_alkane2
345 58 2 0.0 -22.3698635 7.55996799 -3.75240207 # CH2_alkane3
346 58 2 0.0 -22.3708744 8.15674877 -2.34401608 # CH2_alkane4
347 58 2 0.0 -22.3717022 7.06265497 -1.27672398 # CH2_alkane5
348 58 1 0.0 -22.3387413 7.6513319 0.124739997 # CH3_alkane6
349 59 1 0.0 2.14310598 -4.36715508 -17.952774 # CH3_alkane1
350 59 2 0.0 3.29982805 -4.58361101 -16.9902267 # CH2_alkane2
351 59 2 0.0 4.51631594 -5.17623615 -17.700758 # CH2_alkane3
352 59 2 0.0 5.66616583 -5.42384815 -16.7228832 # CH2_alkane4
353 59 2 0.0 6.89413595 -5.98493099 -17.4394245 # CH2_alkane5
354 59 1 0.0 8.05082703 -6.20098782 -16.4765568 # CH3_alkane6
355 60 1 0.0 16.9758224 -3.54450393 11.6378469 # CH3_alkane1
356 60 2 0.0 18.3843746 -3.78995395 11.1210337 # CH2_alkane2
357 60 2 0.0 18.3981457 -3.98968005 9.60583591 # CH2_alkane3
358 60 2 0.0 19.8121681 -4.26972198 9.09415054 # CH2_alkane4
359 60 2 0.0 19.830761 -4.43593693 7.57488203 # CH2_alkane5
360 60 1 0.0 21.2396049 -4.68108511 7.05836105 # CH3_alkane6
361 61 1 0.0 6.3251462 -15.2105818 4.25466681 # CH3_alkane1
362 61 2 0.0 7.56223011 -15.8639021 4.84977722 # CH2_alkane2
363 61 2 0.0 7.21467018 -16.7100563 6.07416677 # CH2_alkane3
364 61 2 0.0 8.46596146 -17.3383904 6.68993378 # CH2_alkane4
365 61 2 0.0 8.11436558 -18.2116718 7.89405823 # CH2_alkane5
366 61 1 0.0 9.35173416 -18.8651085 8.48875999 # CH3_alkane6
367 62 1 0.0 10.9151421 4.31345606 5.12162113 # CH3_alkane1
368 62 2 0.0 11.2768993 2.92639589 4.61510611 # CH2_alkane2
369 62 2 0.0 10.4225798 2.52915812 3.41167402 # CH2_alkane3
370 62 2 0.0 10.76618 1.11998796 2.92600012 # CH2_alkane4
371 62 2 0.0 9.935462 0.735997021 1.70182204 # CH2_alkane5
372 62 1 0.0 10.2977228 -0.651086986 1.19537103 # CH3_alkane6
373 63 1 0.0 12.5064316 18.0432777 22.3717022 # CH3_alkane1
374 63 2 0.0 13.4787998 17.0124111 21.8210907 # CH2_alkane2
375 63 2 0.0 14.823863 17.6450787 21.4655018 # CH2_alkane3
376 63 2 0.0 15.7878628 16.6114902 20.8806057 # CH2_alkane4
377 63 2 0.0 17.1441383 17.2372761 20.5564766 # CH2_alkane5
378 63 1 0.0 18.1164055 16.2059917 20.0061378 # CH3_alkane6
379 64 1 0.0 -7.04038811 21.7967358 18.2782612 # CH3_alkane1
380 64 2 0.0 -7.34857893 21.5688076 16.8070621 # CH2_alkane2
381 64 2 0.0 -8.28886795 20.3802414 16.6094017 # CH2_alkane3
382 64 2 0.0 -8.56970215 20.1333275 15.1262074 # CH2_alkane4
383 64 2 0.0 -9.53665829 18.9659348 14.9303961 # CH2_alkane5
384 64 1 0.0 -9.84487534 18.7384777 13.4590044 # CH3_alkane6
385 65 1 0.0 -22.3627205 -9.01351357 -10.343112 # CH3_alkane1
386 65 2 0.0 -21.5136681 -10.1313992 -9.7593298 # CH2_alkane2
387 65 2 0.0 -22.3717022 -11.322197 -9.33308601 # CH2_alkane3
388 65 2 0.0 -21.5177708 -12.4308348 -8.71548843 # CH2_alkane4
389 65 2 0.0 -22.3717022 -13.6352921 -8.32021904 # CH2_alkane5
390 65 1 0.0 -21.5222244 -14.7531662 -7.73671722 # CH3_alkane6
391 66 1 0.0 -16.6237774 -13.8836241 17.3939342 # CH3_alkane1
392 66 2 0.0 -17.7603416 -13.1332188 18.0695629 # CH2_alkane2
393 66 2 0.0 -17.4597454 -12.8717098 19.5450821 # CH2_alkane3
394 66 2 0.0 -18.6196651 -12.1464443 20.2293911 # CH2_alkane4
395 66 2 0.0 -18.3049774 -11.8550615 21.6964359 # CH2_alkane5
396 66 1 0.0 -19.4417076 -11.1043367 22.3717022 # CH3_alkane6
397 67 1 0.0 -20.5932484 22.3631859 -11.6208525 # CH3_alkane1
398 67 2 0.0 -19.9209061 21.5599346 -10.5189877 # CH2_alkane2
399 67 2 0.0 -19.7971668 22.3717022 -9.22994614 # CH2_alkane3
400 67 2 0.0 -19.0901699 21.5720711 -8.13429737 # CH2_alkane4
401 67 2 0.0 -18.996624 22.3717022 -6.83506918 # CH2_alkane5
402 67 1 0.0 -18.3244572 21.5679798 -5.73327494 # CH3_alkane6
403 68 1 0.0 -13.819911 18.0654278 15.7526779 # CH3_alkane1
404 68 2 0.0 -13.3339834 16.6909618 15.3213081 # CH2_alkane2
405 68 2 0.0 -14.20156 16.1159878 14.2021027 # CH2_alkane3
406 68 2 0.0 -13.7300959 14.7192202 13.7941036 # CH2_alkane4
407 68 2 0.0 -14.5768194 14.158349 12.6518974 # CH2_alkane5
408 68 1 0.0 -14.0903835 12.7839193 12.220561 # CH3_alkane6
409 69 1 0.0 20.3924866 5.24400806 -0.0338389985 # CH3_alkane1
410 69 2 0.0 20.1889286 6.69657898 -0.433789998 # CH2_alkane2
411 69 2 0.0 18.8668175 6.89345884 -1.17484605 # CH2_alkane3
412 69 2 0.0 18.6813259 8.34956264 -1.60502899 # CH2_alkane4
413 69 2 0.0 17.3438549 8.55294323 -2.31633902 # CH2_alkane5
414 69 1 0.0 17.1404953 10.0057764 -2.71589899 # CH3_alkane6
415 70 1 0.0 -14.280261 22.3703671 18.4140148 # CH3_alkane1
416 70 2 0.0 -13.1146202 22.3717003 17.4379845 # CH2_alkane2
417 70 2 0.0 -13.5981445 22.3701725 15.9881191 # CH2_alkane3
418 70 2 0.0 -12.4230118 22.3375053 15.0094995 # CH2_alkane4
419 70 2 0.0 -12.9059343 22.3700714 13.5597143 # CH2_alkane5
420 70 1 0.0 -11.7399454 22.3717003 12.58391 # CH3_alkane6
421 71 1 0.0 0.837122977 21.6764889 22.3717003 # CH3_alkane1
422 71 2 0.0 0.316231996 22.3716927 21.1240139 # CH2_alkane2
423 71 2 0.0 -0.924870014 21.6725502 20.5701408 # CH2_alkane3
424 71 2 0.0 -1.42603505 22.3547325 19.2961082 # CH2_alkane4
425 71 2 0.0 -2.68675089 21.6759987 18.7612553 # CH2_alkane5
426 71 1 0.0 -3.20756197 22.3716965 17.5136623 # CH3_alkane6
427 72 1 0.0 20.5949478 -22.3196564 3.84637904 # CH3_alkane1
428 72 2 0.0 19.240778 -22.3717022 4.53549194 # CH2_alkane2
429 72 2 0.0 18.8230667 -20.9960632 5.05418301 # CH2_alkane3
430 72 2 0.0 17.4760685 -21.0589199 5.77622795 # CH2_alkane4
431 72 2 0.0 17.0425587 -19.6772442 6.265306 # CH2_alkane5
432 72 1 0.0 15.6881266 -19.7296276 6.95414305 # CH3_alkane6
433 73 1 0.0 12.2480726 -9.8688364 -16.7085075 # CH3_alkane1
434 73 2 0.0 13.6182928 -9.68316269 -16.07654 # CH2_alkane2
435 73 2 0.0 14.2123899 -11.0171041 -15.6253681 # CH2_alkane3
436 73 2 0.0 15.5758028 -10.8225203 -14.9598303 # CH2_alkane4
437 73 2 0.0 16.1848831 -12.1597462 -14.539114 # CH2_alkane5
438 73 1 0.0 17.5553131 -11.9736986 -13.9074221 # CH3_alkane6
439 74 1 0.0 18.4126816 -2.11867404 -16.9982433 # CH3_alkane1
440 74 2 0.0 17.3782749 -3.12017894 -17.4864559 # CH2_alkane2
441 74 2 0.0 17.9863071 -4.11830187 -18.4713173 # CH2_alkane3
442 74 2 0.0 16.9351635 -5.10317993 -18.9859161 # CH2_alkane4
443 74 2 0.0 17.5504208 -6.12212086 -19.9447536 # CH2_alkane5
444 74 1 0.0 16.5157242 -7.1237092 -20.4325562 # CH3_alkane6
445 75 1 0.0 -3.17782903 -2.99128389 5.37383986 # CH3_alkane1
446 75 2 0.0 -2.63046193 -4.3303628 4.90627623 # CH2_alkane2
447 75 2 0.0 -1.54593599 -4.15209723 3.84423494 # CH2_alkane3
448 75 2 0.0 -1.02156901 -5.50210905 3.35208893 # CH2_alkane4
449 75 2 0.0 0.0865499973 -5.32329512 2.31466389 # CH2_alkane5
450 75 1 0.0 0.633919001 -6.66265917 1.84752297 # CH3_alkane6
451 76 1 0.0 7.70676708 -13.454421 8.03227425 # CH3_alkane1
452 76 2 0.0 9.21889114 -13.6106424 8.05319214 # CH2_alkane2
453 76 2 0.0 9.92224503 -12.2537413 8.04890633 # CH2_alkane3
454 76 2 0.0 11.4432478 -12.4152498 8.03597164 # CH2_alkane4
455 76 2 0.0 12.146554 -11.0585537 8.06578541 # CH2_alkane5
456 76 1 0.0 13.6587534 -11.2151804 8.08700371 # CH3_alkane6
457 77 1 0.0 -1.99366105 9.08143806 5.36554384 # CH3_alkane1
458 77 2 0.0 -2.36894488 10.432497 5.95304918 # CH2_alkane2
459 77 2 0.0 -1.13514304 11.1979227 6.43029213 # CH2_alkane3
460 77 2 0.0 -1.51961398 12.541913 7.05124092 # CH2_alkane4
461 77 2 0.0 -0.28332299 13.3218937 7.49774599 # CH2_alkane5
462 77 1 0.0 -0.658994973 14.6731081 8.08495903 # CH3_alkane6
463 78 1 0.0 -8.84483719 -7.87864113 4.20866013 # CH3_alkane1
464 78 2 0.0 -9.45014 -6.66146517 4.889431 # CH2_alkane2
465 78 2 0.0 -10.9771776 -6.68920422 4.83204985 # CH2_alkane3
466 78 2 0.0 -11.5815029 -5.44663382 5.48818398 # CH2_alkane4
467 78 2 0.0 -13.1090651 -5.49079514 5.46068382 # CH2_alkane5
468 78 1 0.0 -13.7140589 -4.27353621 6.14185095 # CH3_alkane6
469 79 1 0.0 10.8997879 -13.5626287 2.32203698 # CH3_alkane1
470 79 2 0.0 10.1339111 -12.4635363 3.04091597 # CH2_alkane2
471 79 2 0.0 8.63422489 -12.5494537 2.75902104 # CH2_alkane3
472 79 2 0.0 7.87124014 -11.4221601 3.45670605 # CH2_alkane4
473 79 2 0.0 6.3678441 -11.5279942 3.2022419 # CH2_alkane5
474 79 1 0.0 5.60221386 -10.428853 3.92156506 # CH3_alkane6
475 80 1 0.0 -22.3717022 8.28770924 -22.3604164 # CH3_alkane1
476 80 2 0.0 -21.0814648 7.48364401 -22.3716984 # CH2_alkane2
477 80 2 0.0 -21.3581161 5.98056793 -22.3601685 # CH2_alkane3
478 80 2 0.0 -20.0577583 5.17542219 -22.3375492 # CH2_alkane4