LAMMPS data file
# Generated via moleculegraph
# Use if there are more then one bond style or dihedral style

2 atom types
2 bond types
2 angle types
2 dihedral types

3000 atoms
2500 bonds
2000 angles
1500 dihedrals

-26.48172974875866 26.48172974875866 xlo xhi
-26.48172974875866 26.48172974875866 ylo yhi
-26.48172974875866 26.48172974875866 zlo zhi

Masses

1 15.035 # CH3_alkane
2 14.027 # CH2_alkane

# Elements

Bond Coeffs

1 200.0 1.74 # CH3_alkane CH2_alkane
2 200.0 1.54 # CH2_alkane CH2_alkane

Angle Coeffs

1 62.1001 114.0 # CH2_alkane CH2_alkane CH3_alkane
2 62.1001 114.0 # CH2_alkane CH2_alkane CH2_alkane

Dihedral Coeffs

1 1.411 -0.271 3.145 0.0 # CH2_alkane CH2_alkane CH2_alkane CH3_alkane
2 1.411 -0.271 3.145 0.0 # CH2_alkane CH2_alkane CH2_alkane CH2_alkane

Atoms

1 1 1 0.0 14.9445124 -2.93062091 22.9063148 # CH3_alkane1
2 1 2 0.0 15.9290133 -2.23989105 21.9762554 # CH2_alkane2
3 1 2 0.0 16.2273235 -3.09243703 20.7433376 # CH2_alkane3
4 1 2 0.0 17.2436504 -2.40922999 19.8268185 # CH2_alkane4
5 1 2 0.0 17.5163345 -3.24642205 18.5774555 # CH2_alkane5
6 1 1 0.0 18.5007076 -2.5552001 17.6474304 # CH3_alkane6
7 2 1 0.0 13.4408789 -12.4253712 11.4080858 # CH3_alkane1
8 2 2 0.0 12.998601 -11.270709 10.5234928 # CH2_alkane2
9 2 2 0.0 13.0298061 -11.6544476 9.04441261 # CH2_alkane3
10 2 2 0.0 12.6165924 -10.4799833 8.15582561 # CH2_alkane4
11 2 2 0.0 12.6153154 -10.8738556 6.6789999 # CH2_alkane5
12 2 1 0.0 12.1726694 -9.71896839 5.79467821 # CH3_alkane6
13 3 1 0.0 -3.1196301 13.0801373 1.43719304 # CH3_alkane1
14 3 2 0.0 -3.63720989 11.8577318 2.1782701 # CH2_alkane2
15 3 2 0.0 -3.09289694 11.7956877 3.60507798 # CH2_alkane3
16 3 2 0.0 -3.58889103 10.5470448 4.3362298 # CH2_alkane4
17 3 2 0.0 -3.0717659 10.5025167 5.77384996 # CH2_alkane5
18 3 1 0.0 -3.58982396 9.28006077 6.51475811 # CH3_alkane6
19 4 1 0.0 14.2841063 -3.17299008 -18.2340546 # CH3_alkane1
20 4 2 0.0 15.5117226 -3.35719991 -19.1117687 # CH2_alkane2
21 4 2 0.0 16.5246029 -4.30270576 -18.4667892 # CH2_alkane3
22 4 2 0.0 17.7727394 -4.45904589 -19.3370876 # CH2_alkane4
23 4 2 0.0 18.7708187 -5.43080616 -18.7080631 # CH2_alkane5
24 4 1 0.0 19.9982471 -5.61501408 -19.5862522 # CH3_alkane6
25 5 1 0.0 -21.7355289 1.14812303 -12.118331 # CH3_alkane1
26 5 2 0.0 -22.5657692 2.38870001 -11.830184 # CH2_alkane2
27 5 2 0.0 -22.6804981 3.28465009 -13.0630741 # CH2_alkane3
28 5 2 0.0 -23.4880257 4.54786682 -12.7599497 # CH2_alkane4
29 5 2 0.0 -23.6312542 5.42736101 -14.0017748 # CH2_alkane5
30 5 1 0.0 -24.4618587 6.66776896 -13.7133112 # CH3_alkane6
31 6 1 0.0 -3.8201499 -6.59089184 -18.6615791 # CH3_alkane1
32 6 2 0.0 -4.95096111 -5.85054111 -19.3576431 # CH2_alkane2
33 6 2 0.0 -6.28050089 -6.58903885 -19.2064857 # CH2_alkane3
34 6 2 0.0 -7.40900517 -5.85871077 -19.9364185 # CH2_alkane4
35 6 2 0.0 -8.74489689 -6.57935095 -19.7569103 # CH2_alkane5
36 6 1 0.0 -9.875597 -5.83850813 -20.4528961 # CH3_alkane6
37 7 1 0.0 -6.79304504 -8.39433956 23.6007004 # CH3_alkane1
38 7 2 0.0 -7.89637518 -8.99598885 24.4562931 # CH2_alkane2
39 7 2 0.0 -9.0556736 -9.50373745 23.5994835 # CH2_alkane3
40 7 2 0.0 -10.1782646 -10.0776157 24.4655972 # CH2_alkane4
41 7 2 0.0 -11.3226414 -10.6159887 23.6072807 # CH2_alkane5
42 7 1 0.0 -12.4257193 -11.2178698 24.4632511 # CH3_alkane6
43 8 1 0.0 8.77857208 6.71310711 11.2660837 # CH3_alkane1
44 8 2 0.0 8.4397459 5.23139811 11.2991829 # CH2_alkane2
45 8 2 0.0 9.6526041 4.37147093 10.9450541 # CH2_alkane3
46 8 2 0.0 9.29926872 2.88323212 10.9465351 # CH2_alkane4
47 8 2 0.0 10.5202847 2.02172399 10.6254787 # CH2_alkane5
48 8 1 0.0 10.1811333 0.539974988 10.658968 # CH3_alkane6
49 9 1 0.0 8.57457829 -20.5940857 -19.9677944 # CH3_alkane1
50 9 2 0.0 9.83018112 -20.4927216 -19.1165924 # CH2_alkane2
51 9 2 0.0 9.64476967 -19.5114441 -17.9596043 # CH2_alkane3
52 9 2 0.0 10.9208784 -19.3868427 -17.1255035 # CH2_alkane4
53 9 2 0.0 10.7247353 -18.431263 -15.9488354 # CH2_alkane5
54 9 1 0.0 11.9805222 -18.3303757 -15.0976315 # CH3_alkane6
55 10 1 0.0 18.6967621 16.661623 8.48748684 # CH3_alkane1
56 10 2 0.0 18.76651 15.4296942 7.59931898 # CH2_alkane2
57 10 2 0.0 17.7176857 15.4797993 6.48874998 # CH2_alkane3
58 10 2 0.0 17.7686844 14.2233372 5.61788702 # CH2_alkane4
59 10 2 0.0 16.7425346 14.2888212 4.48701191 # CH2_alkane5
60 10 1 0.0 16.8127804 13.0567894 3.59881592 # CH3_alkane6
61 11 1 0.0 -16.8921452 -15.5072708 -7.02662182 # CH3_alkane1
62 11 2 0.0 -17.9348564 -16.271656 -6.22672987 # CH2_alkane2
63 11 2 0.0 -19.010849 -15.3382006 -5.6728282 # CH2_alkane3
64 11 2 0.0 -20.0392876 -16.1060791 -4.84073496 # CH2_alkane4
65 11 2 0.0 -21.1337948 -15.1777363 -4.31501198 # CH2_alkane5
66 11 1 0.0 -22.1765537 -15.9425602 -3.51537299 # CH3_alkane6
67 12 1 0.0 9.18601131 -11.8723125 -14.3997831 # CH3_alkane1
68 12 2 0.0 9.63628006 -13.1060419 -13.6339312 # CH2_alkane2
69 12 2 0.0 8.58702755 -14.2157698 -13.6929054 # CH2_alkane3
70 12 2 0.0 9.02888966 -15.4426336 -12.893364 # CH2_alkane4
71 12 2 0.0 7.99474287 -16.5647469 -12.9802904 # CH2_alkane5
72 12 1 0.0 8.44551373 -17.7984962 -12.2145262 # CH3_alkane6
73 13 1 0.0 -12.621172 16.4275551 23.7063446 # CH3_alkane1
74 13 2 0.0 -11.6310549 17.4875317 23.2508469 # CH2_alkane2
75 13 2 0.0 -12.0831575 18.8889866 23.6600304 # CH2_alkane3
76 13 2 0.0 -11.1017723 19.9554214 23.1708469 # CH2_alkane4
77 13 2 0.0 -11.5363951 21.3536911 23.6091347 # CH2_alkane5
78 13 1 0.0 -10.5458241 22.4134407 23.1536942 # CH3_alkane6
79 14 1 0.0 14.1190491 7.30402708 -6.19144821 # CH3_alkane1
80 14 2 0.0 14.6996937 8.23553753 -7.24335003 # CH2_alkane2
81 14 2 0.0 15.9381762 7.63123989 -7.90432787 # CH2_alkane3
82 14 2 0.0 16.5389862 8.58537388 -8.93794346 # CH2_alkane4
83 14 2 0.0 17.7575455 7.96718502 -9.62285805 # CH2_alkane5
84 14 1 0.0 18.3377781 8.89890957 -10.6749725 # CH3_alkane6
85 15 1 0.0 2.15700197 -23.0922642 -5.26577282 # CH3_alkane1
86 15 2 0.0 1.505988 -22.6774788 -3.9560051 # CH2_alkane2
87 15 2 0.0 0.605811 -23.7821541 -3.40348601 # CH2_alkane3
88 15 2 0.0 -0.0735009983 -23.3484554 -2.10343194 # CH2_alkane4
89 15 2 0.0 -0.947205007 -24.4654942 -1.53332698 # CH2_alkane5
90 15 1 0.0 -1.59785795 -24.0504322 -0.223325998 # CH3_alkane6
91 16 1 0.0 7.16410208 -2.08567405 17.2225628 # CH3_alkane1
92 16 2 0.0 5.74224997 -1.55055201 17.1647663 # CH2_alkane2
93 16 2 0.0 4.79903078 -2.53944397 16.4804153 # CH2_alkane3
94 16 2 0.0 3.37670493 -1.98334706 16.3941116 # CH2_alkane4
95 16 2 0.0 2.42654204 -2.98615599 15.7401104 # CH2_alkane5
96 16 1 0.0 1.00463605 -2.45078397 15.6827555 # CH3_alkane6
97 17 1 0.0 1.30043805 24.4627323 12.4097681 # CH3_alkane1
98 17 2 0.0 1.67625105 23.1858883 11.6750622 # CH2_alkane2
99 17 2 0.0 3.19128704 23.0510216 11.5254526 # CH2_alkane3
100 17 2 0.0 3.56392503 21.7823658 10.7564583 # CH2_alkane4
101 17 2 0.0 5.08003998 21.6303425 10.636301 # CH2_alkane5
102 17 1 0.0 5.45551014 20.3531609 9.90175915 # CH3_alkane6
103 18 1 0.0 -22.8503437 -15.516284 19.3714867 # CH3_alkane1
104 18 2 0.0 -22.0092812 -16.7476654 19.6675758 # CH2_alkane2
105 18 2 0.0 -22.8814621 -17.9425316 20.0516396 # CH2_alkane3
106 18 2 0.0 -22.0302181 -19.1698685 20.3813858 # CH2_alkane4
107 18 2 0.0 -22.9036217 -20.3739986 20.7326546 # CH2_alkane5
108 18 1 0.0 -22.0621777 -21.6053505 21.0284061 # CH3_alkane6
109 19 1 0.0 8.01088333 -1.37392199 24.4578514 # CH3_alkane1
110 19 2 0.0 7.0482688 -0.197174996 24.4574833 # CH2_alkane2
111 19 2 0.0 5.59296179 -0.66405803 24.4603863 # CH2_alkane3
112 19 2 0.0 4.62779999 0.522104979 24.4259949 # CH2_alkane4
113 19 2 0.0 3.17264891 0.0559299998 24.4629898 # CH2_alkane5
114 19 1 0.0 2.21026707 1.233024 24.4629154 # CH3_alkane6
115 20 1 0.0 -1.51748002 20.2071552 -22.3866882 # CH3_alkane1
116 20 2 0.0 -2.94665408 20.3513641 -21.8886662 # CH2_alkane2
117 20 2 0.0 -3.06425095 21.4524136 -20.8352108 # CH2_alkane3
118 20 2 0.0 -4.4967308 21.5717106 -20.3122635 # CH2_alkane4
119 20 2 0.0 -4.6211381 22.6952534 -19.2835159 # CH2_alkane5
120 20 1 0.0 -6.0505929 22.8393803 -18.7859097 # CH3_alkane6
121 21 1 0.0 -3.78078103 -2.0300951 -0.858968973 # CH3_alkane1
122 21 2 0.0 -5.06209898 -2.48376894 -0.177965999 # CH2_alkane2
123 21 2 0.0 -4.77145815 -3.41268301 1.00040197 # CH2_alkane3
124 21 2 0.0 -6.0640049 -3.89370894 1.66194606 # CH2_alkane4
125 21 2 0.0 -5.77245712 -4.79555798 2.86103797 # CH2_alkane5
126 21 1 0.0 -7.05407715 -5.24882221 3.54201508 # CH3_alkane6
127 22 1 0.0 4.70006514 -15.4093628 2.46747398 # CH3_alkane1
128 22 2 0.0 3.56865907 -16.4133739 2.61993098 # CH2_alkane2
129 22 2 0.0 3.52699399 -17.3925915 1.44719899 # CH2_alkane3
130 22 2 0.0 2.36701298 -18.3797703 1.58728695 # CH2_alkane4
131 22 2 0.0 2.34581208 -19.3800926 0.431840003 # CH2_alkane5
132 22 1 0.0 1.21439099 -20.3841934 0.584797978 # CH3_alkane6
133 23 1 0.0 19.8780098 -24.461832 1.22338104 # CH3_alkane1
134 23 2 0.0 20.1728954 -23.973505 -0.185852006 # CH2_alkane2
135 23 2 0.0 19.1214409 -24.4647827 -1.18033397 # CH2_alkane3
136 23 2 0.0 19.4398994 -23.9996014 -2.60226703 # CH2_alkane4
137 23 2 0.0 18.3703575 -24.4625111 -3.59118009 # CH2_alkane5
138 23 1 0.0 18.665432 -23.9737148 -5.00034189 # CH3_alkane6
139 24 1 0.0 -21.2830429 11.0523453 9.85435581 # CH3_alkane1
140 24 2 0.0 -22.4546509 10.1565933 9.48513889 # CH2_alkane2
141 24 2 0.0 -22.0347157 8.68915272 9.40651417 # CH2_alkane3
142 24 2 0.0 -23.2082043 7.79528809 9.00200176 # CH2_alkane4
143 24 2 0.0 -22.7963409 6.32408714 8.95629406 # CH2_alkane5
144 24 1 0.0 -23.9683456 5.42854786 8.58731747 # CH3_alkane6
145 25 1 0.0 0.983063996 -22.2254639 24.1258621 # CH3_alkane1
146 25 2 0.0 1.36243498 -20.780014 24.4053516 # CH2_alkane2
147 25 2 0.0 2.84911895 -20.5321198 24.1519241 # CH2_alkane3
148 25 2 0.0 3.23372006 -19.0854378 24.4663982 # CH2_alkane4
149 25 2 0.0 4.71317482 -18.8289547 24.1807728 # CH2_alkane5
150 25 1 0.0 5.0921402 -17.3832417 24.4601021 # CH3_alkane6
151 26 1 0.0 10.2460756 15.5874472 -15.9317636 # CH3_alkane1
152 26 2 0.0 9.18960476 16.5772018 -16.3961048 # CH2_alkane2
153 26 2 0.0 9.7173872 18.0113735 -16.3737125 # CH2_alkane3
154 26 2 0.0 8.64128017 19.0073586 -16.8092728 # CH2_alkane4
155 26 2 0.0 9.17928696 20.4379539 -16.8192139 # CH2_alkane5
156 26 1 0.0 8.12256813 21.4274559 -17.2839241 # CH3_alkane6
157 27 1 0.0 24.2574272 13.9936752 -10.7830591 # CH3_alkane1
158 27 2 0.0 23.3535213 13.6380129 -9.61352253 # CH2_alkane2
159 27 2 0.0 21.9276161 13.3422556 -10.0774517 # CH2_alkane3
160 27 2 0.0 21.0134945 13.0178137 -8.89473438 # CH2_alkane4
161 27 2 0.0 19.5957661 12.6890993 -9.36179256 # CH2_alkane5
162 27 1 0.0 18.6921616 12.3331699 -8.19194603 # CH3_alkane6
163 28 1 0.0 1.55688703 18.1976948 13.456275 # CH3_alkane1
164 28 2 0.0 3.07546806 18.2439251 13.4002819 # CH2_alkane2
165 28 2 0.0 3.65470505 19.0462646 14.5650311 # CH2_alkane3
166 28 2 0.0 5.18057489 19.1188602 14.486577 # CH2_alkane4
167 28 2 0.0 5.7618041 19.8925343 15.6696892 # CH2_alkane5
168 28 1 0.0 7.28051281 19.9383049 15.6135216 # CH3_alkane6
169 29 1 0.0 -5.77424622 -18.2213345 17.8711147 # CH3_alkane1
170 29 2 0.0 -6.32505894 -17.5076618 19.0953026 # CH2_alkane2
171 29 2 0.0 -6.22148085 -18.3799725 20.3460026 # CH2_alkane3
172 29 2 0.0 -6.80724001 -17.6717091 21.5686836 # CH2_alkane4
173 29 2 0.0 -6.67301178 -18.5305538 22.8258705 # CH2_alkane5
174 29 1 0.0 -7.22368813 -17.8163948 24.0499878 # CH3_alkane6
175 30 1 0.0 3.89666605 -6.96624088 -6.4267621 # CH3_alkane1
176 30 2 0.0 2.47639203 -7.49938107 -6.32704115 # CH2_alkane2
177 30 2 0.0 1.45193803 -6.36524391 -6.31558323 # CH2_alkane3
178 30 2 0.0 0.0266479999 -6.90395689 -6.18127108 # CH2_alkane4
179 30 2 0.0 -0.999924004 -5.77179289 -6.20379019 # CH2_alkane5
180 30 1 0.0 -2.42018604 -6.30535984 -6.10434914 # CH3_alkane6
181 31 1 0.0 -17.6080723 9.08533669 24.4577637 # CH3_alkane1
182 31 2 0.0 -16.1016827 8.8801918 24.465847 # CH2_alkane2
183 31 2 0.0 -15.3611202 10.1511393 24.0509167 # CH2_alkane3
184 31 2 0.0 -13.8476105 9.93101788 24.027729 # CH2_alkane4
185 31 2 0.0 -13.1054935 11.2113857 23.6455345 # CH2_alkane5
186 31 1 0.0 -11.5990257 11.0059338 23.6540184 # CH3_alkane6
187 32 1 0.0 17.6210766 -24.3182335 7.32049704 # CH3_alkane1
188 32 2 0.0 18.9651489 -24.4822807 6.62918186 # CH2_alkane2
189 32 2 0.0 20.1243649 -24.3074989 7.60978222 # CH2_alkane3
190 32 2 0.0 21.4750462 -24.4398346 6.90420103 # CH2_alkane4
191 32 2 0.0 22.6337891 -24.298605 7.89087296 # CH2_alkane5
192 32 1 0.0 23.9777775 -24.4630203 7.19921494 # CH3_alkane6
193 33 1 0.0 5.5416708 17.0933495 22.2539177 # CH3_alkane1
194 33 2 0.0 4.50841713 18.0994263 22.7351189 # CH2_alkane2
195 33 2 0.0 5.10196877 19.5036793 22.843174 # CH2_alkane3
196 33 2 0.0 4.06879902 20.5064507 23.3596153 # CH2_alkane4
197 33 2 0.0 4.65276909 21.9169006 23.4355373 # CH2_alkane5
198 33 1 0.0 3.61908293 22.922823 23.9165173 # CH3_alkane6
199 34 1 0.0 8.78962994 8.08829021 -19.8729267 # CH3_alkane1
200 34 2 0.0 7.52775908 8.32098866 -20.6883354 # CH2_alkane2
201 34 2 0.0 6.93114901 9.7013731 -20.4153881 # CH2_alkane3
202 34 2 0.0 5.64355183 9.91866493 -21.2119923 # CH2_alkane4
203 34 2 0.0 5.06537294 11.3117685 -20.9647617 # CH2_alkane5
204 34 1 0.0 3.80360103 11.5442371 -21.7806149 # CH3_alkane6
205 35 1 0.0 -3.30588007 -6.32096577 -2.24086905 # CH3_alkane1
206 35 2 0.0 -4.38128424 -7.39512014 -2.27339005 # CH2_alkane2
207 35 2 0.0 -5.26639795 -7.33937216 -1.02865195 # CH2_alkane3
208 35 2 0.0 -6.32570124 -8.44262314 -1.04905105 # CH2_alkane4
209 35 2 0.0 -7.23201418 -8.36578083 0.179298997 # CH2_alkane5
210 35 1 0.0 -8.30754948 -9.43995953 0.146285996 # CH3_alkane6
211 36 1 0.0 14.6709366 -8.13913727 -1.76533604 # CH3_alkane1
212 36 2 0.0 13.735693 -9.30652809 -2.03714395 # CH2_alkane2
213 36 2 0.0 14.0975723 -10.023015 -3.33775806 # CH2_alkane3
214 36 2 0.0 13.1340075 -11.1757431 -3.62491989 # CH2_alkane4
215 36 2 0.0 13.5162411 -11.9132042 -4.90796423 # CH2_alkane5
216 36 1 0.0 12.5809059 -13.0807858 -5.17930889 # CH3_alkane6
217 37 1 0.0 7.85437489 -19.5665188 -24.4620724 # CH3_alkane1
218 37 2 0.0 7.42177296 -20.9471397 -23.9950619 # CH2_alkane2
219 37 2 0.0 5.92772198 -21.1732998 -24.2243423 # CH2_alkane3
220 37 2 0.0 5.4897542 -22.5502796 -23.7225361 # CH2_alkane4
221 37 2 0.0 4.00269985 -22.7895069 -23.9825268 # CH2_alkane5
222 37 1 0.0 3.57049489 -24.1704254 -23.5156345 # CH3_alkane6
223 38 1 0.0 -11.7423258 2.26396489 13.2759247 # CH3_alkane1
224 38 2 0.0 -13.0317726 3.05520391 13.4263544 # CH2_alkane2
225 38 2 0.0 -14.2284746 2.135427 13.66681 # CH2_alkane3
226 38 2 0.0 -15.5285883 2.93271589 13.7840347 # CH2_alkane4
227 38 2 0.0 -16.7202301 2.01564193 14.0581074 # CH2_alkane5
228 38 1 0.0 -18.0095329 2.80730009 14.208786 # CH3_alkane6
229 39 1 0.0 21.1060982 -16.1875553 8.06847668 # CH3_alkane1
230 39 2 0.0 20.6501122 -15.4333172 6.82970381 # CH2_alkane2
231 39 2 0.0 20.8619232 -13.92731 6.98131514 # CH2_alkane3
232 39 2 0.0 20.3710308 -13.1691179 5.74686384 # CH2_alkane4
233 39 2 0.0 20.613802 -11.6663694 5.88455486 # CH2_alkane5
234 39 1 0.0 20.1579437 -10.9124403 4.64539719 # CH3_alkane6
235 40 1 0.0 24.4606361 -19.2247505 -19.6173115 # CH3_alkane1
236 40 2 0.0 23.7493954 -20.5463009 -19.3744125 # CH2_alkane2
237 40 2 0.0 23.0137596 -20.5484734 -18.0347328 # CH2_alkane3
238 40 2 0.0 22.327549 -21.8913307 -17.7787094 # CH2_alkane4
239 40 2 0.0 21.5639591 -21.8818493 -16.4547024 # CH2_alkane5
240 40 1 0.0 20.8525543 -23.2035332 -16.2122669 # CH3_alkane6
241 41 1 0.0 10.6136293 -16.2180271 -6.59301805 # CH3_alkane1
242 41 2 0.0 10.9324598 -17.2671089 -7.64617395 # CH2_alkane2
243 41 2 0.0 12.4397793 -17.4718475 -7.79441977 # CH2_alkane3
244 41 2 0.0 12.7574539 -18.5033627 -8.87828255 # CH2_alkane4
245 41 2 0.0 14.2634335 -18.7327595 -9.00301075 # CH2_alkane5
246 41 1 0.0 14.581892 -19.7821846 -10.0561113 # CH3_alkane6
247 42 1 0.0 6.15794086 -19.1579399 -7.96118784 # CH3_alkane1
248 42 2 0.0 5.60248899 -19.0273876 -9.37036896 # CH2_alkane2
249 42 2 0.0 4.19281578 -19.6089592 -9.47284985 # CH2_alkane3
250 42 2 0.0 3.65065598 -19.5062008 -10.899456 # CH2_alkane4
251 42 2 0.0 2.22810698 -20.0570869 -10.9944963 # CH2_alkane5
252 42 1 0.0 1.67283499 -19.9260845 -12.4038363 # CH3_alkane6
253 43 1 0.0 -12.016634 -0.355874985 -17.235281 # CH3_alkane1
254 43 2 0.0 -11.5134277 -1.78962803 -17.2852287 # CH2_alkane2
255 43 2 0.0 -12.6697264 -2.78902507 -17.2944603 # CH2_alkane3
256 43 2 0.0 -12.1591616 -4.23081589 -17.3107338 # CH2_alkane4
257 43 2 0.0 -13.315424 -5.22948217 -17.3540573 # CH2_alkane5
258 43 1 0.0 -12.8118067 -6.66320801 -17.4043064 # CH3_alkane6
259 44 1 0.0 -4.12931395 -10.489789 10.3494768 # CH3_alkane1
260 44 2 0.0 -4.32130289 -9.25492191 11.2152719 # CH2_alkane2
261 44 2 0.0 -3.45587397 -8.09172821 10.7316208 # CH2_alkane3
262 44 2 0.0 -3.62642097 -6.86197519 11.6251097 # CH2_alkane4
263 44 2 0.0 -2.78667402 -5.68831682 11.1216154 # CH2_alkane5
264 44 1 0.0 -2.97916007 -4.45346022 11.9875278 # CH3_alkane6
265 45 1 0.0 17.3770485 -19.6955185 -24.4622593 # CH3_alkane1
266 45 2 0.0 15.9833946 -20.0877991 -23.9983559 # CH2_alkane2
267 45 2 0.0 15.1389332 -18.8593884 -23.6610241 # CH2_alkane3
268 45 2 0.0 13.7491064 -19.2591228 -23.1627293 # CH2_alkane4
269 45 2 0.0 12.893281 -18.0300674 -22.8575439 # CH2_alkane5
270 45 1 0.0 11.4995136 -18.4227543 -22.3939266 # CH3_alkane6
271 46 1 0.0 10.4240751 7.39787817 -7.62306786 # CH3_alkane1
272 46 2 0.0 10.8231096 7.01063204 -9.03804874 # CH2_alkane2
273 46 2 0.0 9.91620731 7.67067385 -10.0762091 # CH2_alkane3
274 46 2 0.0 10.299572 7.25216007 -11.4966249 # CH2_alkane4
275 46 2 0.0 9.41421986 7.93857908 -12.5364008 # CH2_alkane5
276 46 1 0.0 9.81376362 7.55131006 -13.9513617 # CH3_alkane6
277 47 1 0.0 3.28718901 8.67152119 -24.4623241 # CH3_alkane1
278 47 2 0.0 2.64245605 7.61120081 -23.5840302 # CH2_alkane2
279 47 2 0.0 3.6328361 6.50423384 -23.2239208 # CH2_alkane3
280 47 2 0.0 2.97152901 5.42240715 -22.3683338 # CH2_alkane4
281 47 2 0.0 3.97060394 4.33276176 -21.9801636 # CH2_alkane5
282 47 1 0.0 3.32555699 3.27270699 -21.1015701 # CH3_alkane6
283 48 1 0.0 15.6905642 15.8754215 17.9476204 # CH3_alkane1
284 48 2 0.0 15.4160767 14.5140324 17.3290462 # CH2_alkane2
285 48 2 0.0 16.6972637 13.6917496 17.1937084 # CH2_alkane3
286 48 2 0.0 16.4223232 12.3363504 16.5402546 # CH2_alkane4
287 48 2 0.0 17.697834 11.500701 16.43577 # CH2_alkane5
288 48 1 0.0 17.4228935 10.1391792 15.8173904 # CH3_alkane6
289 49 1 0.0 7.97055721 3.9188211 24.2382317 # CH3_alkane1
290 49 2 0.0 9.06591129 3.57163095 23.2427311 # CH2_alkane2
291 49 2 0.0 10.2528343 2.8961761 23.9289379 # CH2_alkane3
292 49 2 0.0 11.3666973 2.5789299 22.9297543 # CH2_alkane4
293 49 2 0.0 12.5393038 1.87307799 23.610136 # CH2_alkane5
294 49 1 0.0 13.6344013 1.52575004 22.6142178 # CH3_alkane6
295 50 1 0.0 24.2010689 -15.0038633 3.35162306 # CH3_alkane1
296 50 2 0.0 24.4862785 -15.7977304 4.61645079 # CH2_alkane2
297 50 2 0.0 24.1697979 -17.2812843 4.42987394 # CH2_alkane3
298 50 2 0.0 24.4260292 -18.0709419 5.71458721 # CH2_alkane4
299 50 2 0.0 24.1417084 -19.5597858 5.51797009 # CH2_alkane5
300 50 1 0.0 24.4273338 -20.3534298 6.78298998 # CH3_alkane6
301 51 1 0.0 18.0732174 22.506464 -15.3084364 # CH3_alkane1
302 51 2 0.0 17.7694283 21.0325031 -15.5241117 # CH2_alkane2
303 51 2 0.0 18.7741489 20.3873367 -16.478159 # CH2_alkane3
304 51 2 0.0 18.4454556 18.9130001 -16.7189827 # CH2_alkane4
305 51 2 0.0 19.4696789 18.2594528 -17.6463413 # CH2_alkane5
306 51 1 0.0 19.1657257 16.7853355 -17.8615627 # CH3_alkane6
307 52 1 0.0 -5.42635679 -22.1680393 8.82856369 # CH3_alkane1
308 52 2 0.0 -5.73350477 -20.866785 9.55227375 # CH2_alkane2
309 52 2 0.0 -5.24639606 -20.9028893 11.0004892 # CH2_alkane3
310 52 2 0.0 -5.58711815 -19.6050816 11.7348642 # CH2_alkane4
311 52 2 0.0 -5.07017708 -19.6280537 13.1730566 # CH2_alkane5
312 52 1 0.0 -5.37725687 -18.3264427 13.896409 # CH3_alkane6
313 53 1 0.0 -9.61020374 -6.86656904 19.7125206 # CH3_alkane1
314 53 2 0.0 -11.0756264 -6.46173906 19.7155952 # CH2_alkane2
315 53 2 0.0 -11.8811731 -7.28200579 20.7226505 # CH2_alkane3
316 53 2 0.0 -13.360878 -6.89521408 20.6988297 # CH2_alkane4
317 53 2 0.0 -14.1602888 -7.69179296 21.7296333 # CH2_alkane5
318 53 1 0.0 -15.6256981 -7.28645802 21.7326355 # CH3_alkane6
319 54 1 0.0 -12.2267532 -22.2622375 -24.4411888 # CH3_alkane1
320 54 2 0.0 -11.5035353 -22.0193615 -23.1261482 # CH2_alkane2
321 54 2 0.0 -11.080286 -23.332655 -22.4688606 # CH2_alkane3
322 54 2 0.0 -10.3829603 -23.0856266 -21.1300488 # CH2_alkane4
323 54 2 0.0 -9.92980289 -24.3970795 -20.4890385 # CH2_alkane5
324 54 1 0.0 -9.20631409 -24.15378 -19.1740875 # CH3_alkane6
325 55 1 0.0 3.29172802 -10.5592861 13.9438953 # CH3_alkane1
326 55 2 0.0 4.44941378 -10.6383266 12.9616146 # CH2_alkane2
327 55 2 0.0 5.6916728 -11.2504892 13.6081095 # CH2_alkane3
328 55 2 0.0 6.86407804 -11.2973547 12.6267967 # CH2_alkane4
329 55 2 0.0 8.09609985 -11.940383 13.2630262 # CH2_alkane5
330 55 1 0.0 9.25356102 -12.019536 12.280302 # CH3_alkane6
331 56 1 0.0 23.9561214 -7.41454315 -18.4058762 # CH3_alkane1
332 56 2 0.0 24.4620972 -6.44920111 -17.3459415 # CH2_alkane2
333 56 2 0.0 23.9254227 -5.03631687 -17.5731983 # CH2_alkane3
334 56 2 0.0 24.4634418 -4.0611968 -16.5246868 # CH2_alkane4
335 56 2 0.0 23.9000874 -2.65555906 -16.7319756 # CH2_alkane5
336 56 1 0.0 24.4060726 -1.69049799 -15.6716156 # CH3_alkane6
337 57 1 0.0 -0.754000008 14.0328445 6.28783703 # CH3_alkane1
338 57 2 0.0 -1.33388805 15.426157 6.10406923 # CH2_alkane2
339 57 2 0.0 -1.42860401 15.8029051 4.62589598 # CH2_alkane3
340 57 2 0.0 -1.98091602 17.2179832 4.44644022 # CH2_alkane4
341 57 2 0.0 -2.10722995 17.5819416 2.9673419 # CH2_alkane5
342 57 1 0.0 -2.68746805 18.9752884 2.78394198 # CH3_alkane6
343 58 1 0.0 -3.85494494 7.63846302 -14.8596792 # CH3_alkane1
344 58 2 0.0 -4.46500778 9.00897789 -14.612957 # CH2_alkane2
345 58 2 0.0 -3.41609192 10.1157789 -14.7162657 # CH2_alkane3
346 58 2 0.0 -4.02684307 11.4895258 -14.4343042 # CH2_alkane4
347 58 2 0.0 -2.98508811 12.5996017 -14.5707922 # CH2_alkane5
348 58 1 0.0 -3.59561205 13.9700842 -14.3242836 # CH3_alkane6
349 59 1 0.0 6.871562 -19.9382744 1.37399399 # CH3_alkane1
350 59 2 0.0 7.09193897 -19.6451416 2.84941506 # CH2_alkane2
351 59 2 0.0 8.00771713 -18.4380589 3.049927 # CH2_alkane3
352 59 2 0.0 8.25409698 -18.1669064 4.53501177 # CH2_alkane4
353 59 2 0.0 9.14248943 -16.9395103 4.73603487 # CH2_alkane5
354 59 1 0.0 9.36241531 -16.6464844 6.21166897 # CH3_alkane6
355 60 1 0.0 -20.1436939 2.94966698 9.36229706 # CH3_alkane1
356 60 2 0.0 -21.1701164 2.31325507 10.2857666 # CH2_alkane2
357 60 2 0.0 -21.2945023 3.0831809 11.6001682 # CH2_alkane3
358 60 2 0.0 -22.3033161 2.420753 12.5399466 # CH2_alkane4
359 60 2 0.0 -22.4524937 3.20960808 13.8405647 # CH2_alkane5
360 60 1 0.0 -23.4792786 2.57303309 14.7637177 # CH3_alkane6
361 61 1 0.0 -9.94380188 15.4610996 -14.9772739 # CH3_alkane1
362 61 2 0.0 -9.00856495 14.2984629 -15.2687635 # CH2_alkane2
363 61 2 0.0 -9.72847366 12.9559565 -15.1450224 # CH2_alkane3
364 61 2 0.0 -8.77629566 11.7876348 -15.4059582 # CH2_alkane4
365 61 2 0.0 -9.50400066 10.4465942 -15.3153811 # CH2_alkane5
366 61 1 0.0 -8.56846428 9.28413296 -15.6072426 # CH3_alkane6
367 62 1 0.0 -24.4616699 2.07704306 -21.6595955 # CH3_alkane1
368 62 2 0.0 -23.0580654 2.53259802 -21.2939091 # CH2_alkane2
369 62 2 0.0 -22.1001072 2.40021205 -22.4774208 # CH2_alkane3
370 62 2 0.0 -20.6818161 2.82764792 -22.0960388 # CH2_alkane4
371 62 2 0.0 -19.7313423 2.72722006 -23.2887955 # CH2_alkane5
372 62 1 0.0 -18.3278179 3.18317008 -22.9227982 # CH3_alkane6
373 63 1 0.0 -2.63530397 -19.6663647 1.19934201 # CH3_alkane1
374 63 2 0.0 -3.7468431 -19.5540867 0.16821 # CH2_alkane2
375 63 2 0.0 -3.43109298 -20.3676186 -1.08653104 # CH2_alkane3
376 63 2 0.0 -4.53580284 -20.2251778 -2.13487601 # CH2_alkane4
377 63 2 0.0 -4.23607922 -21.0655079 -3.37591004 # CH2_alkane5
378 63 1 0.0 -5.34804296 -20.9532146 -4.40676117 # CH3_alkane6
379 64 1 0.0 -15.8532734 -2.51763606 3.26182699 # CH3_alkane1
380 64 2 0.0 -17.1519089 -3.30812311 3.25595808 # CH2_alkane2
381 64 2 0.0 -17.8074207 -3.31865406 4.63657284 # CH2_alkane3
382 64 2 0.0 -19.0959911 -4.1428442 4.63465691 # CH2_alkane4
383 64 2 0.0 -19.7690296 -4.12536812 6.00683308 # CH2_alkane5
384 64 1 0.0 -21.0678692 -4.91575193 6.00050688 # CH3_alkane6
385 65 1 0.0 -8.2515049 -17.5645294 8.90045929 # CH3_alkane1
386 65 2 0.0 -7.58143902 -16.2515755 9.27264214 # CH2_alkane2
387 65 2 0.0 -8.32011795 -15.0558548 8.67221355 # CH2_alkane3
388 65 2 0.0 -7.62390709 -13.7392445 9.02081966 # CH2_alkane4
389 65 2 0.0 -8.38149834 -12.5413818 8.4486866 # CH2_alkane5
390 65 1 0.0 -7.71126986 -11.2285042 8.82134724 # CH3_alkane6
391 66 1 0.0 -2.08351111 -8.55172825 2.59287405 # CH3_alkane1
392 66 2 0.0 -2.38315511 -9.57472992 1.50888097 # CH2_alkane2
393 66 2 0.0 -1.10749698 -10.0314674 0.801778018 # CH2_alkane3
394 66 2 0.0 -1.41644704 -11.0351458 -0.310373008 # CH2_alkane4
395 66 2 0.0 -0.137760997 -11.5173006 -0.994946003 # CH2_alkane5
396 66 1 0.0 -0.437786013 -12.5405788 -2.07874203 # CH3_alkane6
397 67 1 0.0 8.76449585 12.0872507 -17.0561867 # CH3_alkane1
398 67 2 0.0 9.64019585 10.8751469 -16.7817535 # CH2_alkane2
399 67 2 0.0 11.1243973 11.2389574 -16.8081551 # CH2_alkane3
400 67 2 0.0 12.0029783 10.010663 -16.5650673 # CH2_alkane4
401 67 2 0.0 13.4859581 10.3806257 -16.557951 # CH2_alkane5
402 67 1 0.0 14.361393 9.16825676 -16.2831726 # CH3_alkane6
403 68 1 0.0 -21.1604137 18.7053967 20.8428974 # CH3_alkane1
404 68 2 0.0 -20.8593521 18.5554848 19.3602486 # CH2_alkane2
405 68 2 0.0 -20.0616932 17.2830162 19.0765724 # CH2_alkane3
406 68 2 0.0 -19.7318153 17.1529655 17.5886307 # CH2_alkane4
407 68 2 0.0 -18.9633904 15.863575 17.3002777 # CH2_alkane5
408 68 1 0.0 -18.6627483 15.7138433 15.8174009 # CH3_alkane6
409 69 1 0.0 18.9037304 2.85970402 7.70877981 # CH3_alkane1
410 69 2 0.0 18.6779861 4.19928122 8.39137363 # CH2_alkane2
411 69 2 0.0 17.5570068 4.11825085 9.42710686 # CH2_alkane3
412 69 2 0.0 17.3102055 5.47567892 10.0875473 # CH2_alkane4
413 69 2 0.0 16.2122746 5.38685989 11.1471739 # CH2_alkane5
414 69 1 0.0 15.9870005 6.72663212 11.8298101 # CH3_alkane6
415 70 1 0.0 13.8637333 0.381251007 0.144029006 # CH3_alkane1
416 70 2 0.0 15.0843468 1.28759503 0.144556999 # CH2_alkane2
417 70 2 0.0 16.3817444 0.479808003 0.156728998 # CH2_alkane3
418 70 2 0.0 17.6069107 1.39494705 0.191238001 # CH2_alkane4
419 70 2 0.0 18.9045467 0.587598026 0.169312999 # CH2_alkane5
420 70 1 0.0 20.125021 1.49433196 0.169542998 # CH3_alkane6
421 71 1 0.0 15.9922943 12.3872137 -4.454391 # CH3_alkane1
422 71 2 0.0 16.5756721 13.7514191 -4.78601313 # CH2_alkane2
423 71 2 0.0 15.5143948 14.8484468 -4.70775604 # CH2_alkane3
424 71 2 0.0 16.0974331 16.2141304 -5.07474089 # CH2_alkane4
425 71 2 0.0 15.0441914 17.3161774 -4.96372604 # CH2_alkane5
426 71 1 0.0 15.6280384 18.6803665 -5.29514599 # CH3_alkane6
427 72 1 0.0 4.60235691 -16.1330547 -16.3813305 # CH3_alkane1
428 72 2 0.0 5.51194286 -15.0535574 -16.9458618 # CH2_alkane2
429 72 2 0.0 6.80517197 -15.6464996 -17.5043278 # CH2_alkane3
430 72 2 0.0 7.73210382 -14.5543518 -18.0407162 # CH2_alkane4
431 72 2 0.0 9.01047707 -15.1501379 -18.6297455 # CH2_alkane5
432 72 1 0.0 9.91973877 -14.0703068 -19.1944866 # CH3_alkane6
433 73 1 0.0 6.75827217 4.15220022 4.37707186 # CH3_alkane1
434 73 2 0.0 6.08228588 3.49592495 5.57026291 # CH2_alkane2
435 73 2 0.0 6.90797615 2.32826495 6.1094408 # CH2_alkane3
436 73 2 0.0 6.2086072 1.64955294 7.28839588 # CH2_alkane4
437 73 2 0.0 7.05011702 0.503310978 7.84887886 # CH2_alkane5
438 73 1 0.0 6.37391806 -0.152574003 9.04231834 # CH3_alkane6
439 74 1 0.0 11.2135572 -5.91759014 -2.50451207 # CH3_alkane1
440 74 2 0.0 12.2130518 -4.78106403 -2.36071706 # CH2_alkane2
441 74 2 0.0 12.3869991 -4.01868582 -3.67389107 # CH2_alkane3
442 74 2 0.0 13.4181118 -2.89752412 -3.53422999 # CH2_alkane4
443 74 2 0.0 13.5671511 -2.11384201 -4.83798695 # CH2_alkane5
444 74 1 0.0 14.5665627 -0.977140009 -4.69371986 # CH3_alkane6
445 75 1 0.0 -0.451395005 23.3488388 -11.7503595 # CH3_alkane1
446 75 2 0.0 -1.59722996 22.5313625 -12.3249521 # CH2_alkane2
447 75 2 0.0 -2.65893412 23.4265308 -12.9632044 # CH2_alkane3
448 75 2 0.0 -3.82595706 22.6027565 -13.5101528 # CH2_alkane4
449 75 2 0.0 -4.87143087 23.4953556 -14.1782846 # CH2_alkane5
450 75 1 0.0 -6.01703691 22.6774635 -14.7530622 # CH3_alkane6
451 76 1 0.0 -6.17501783 -24.4629002 13.034152 # CH3_alkane1
452 76 2 0.0 -7.67338324 -24.4641609 12.776742 # CH2_alkane2
453 76 2 0.0 -7.98470497 -24.4292736 11.2808247 # CH2_alkane3
454 76 2 0.0 -9.49270916 -24.3966389 11.0267372 # CH2_alkane4
455 76 2 0.0 -9.80437756 -24.3958492 9.53040314 # CH2_alkane5
456 76 1 0.0 -11.3029289 -24.3974133 9.27335835 # CH3_alkane6
457 77 1 0.0 -15.1032963 24.4349174 8.77640724 # CH3_alkane1
458 77 2 0.0 -13.8668118 24.4771061 7.89284277 # CH2_alkane2
459 77 2 0.0 -14.2358065 24.4290657 6.41046619 # CH2_alkane3
460 77 2 0.0 -12.9880686 24.4377174 5.52571678 # CH2_alkane4
461 77 2 0.0 -13.3580723 24.4237576 4.04279613 # CH2_alkane5
462 77 1 0.0 -12.121273 24.4662628 3.1594789 # CH3_alkane6
463 78 1 0.0 15.8713846 4.05938721 4.45953417 # CH3_alkane1
464 78 2 0.0 16.810812 4.49767113 3.34744406 # CH2_alkane2
465 78 2 0.0 18.2746105 4.3035779 3.74181008 # CH2_alkane3
466 78 2 0.0 19.2170277 4.77688599 2.63386893 # CH2_alkane4
467 78 2 0.0 20.6800327 4.55153084 3.01463795 # CH2_alkane5
468 78 1 0.0 21.6192131 4.98967695 1.90212202 # CH3_alkane6
469 79 1 0.0 12.2013388 -24.3375931 10.9487982 # CH3_alkane1
470 79 2 0.0 10.6869411 -24.4664021 10.9857578 # CH2_alkane2
471 79 2 0.0 10.0541372 -24.0146332 9.66994286 # CH2_alkane3
472 79 2 0.0 8.52867413 -24.113905 9.72296238 # CH2_alkane4
473 79 2 0.0 7.89786482 -23.6941395 8.39554691 # CH2_alkane5
474 79 1 0.0 6.38338804 -23.8233738 8.4327774 # CH3_alkane6
475 80 1 0.0 8.74845314 -4.00825787 21.0905437 # CH3_alkane1
476 80 2 0.0 7.36425495 -4.50208187 20.7013206 # CH2_alkane2
477 80 2 0.0 6.27832699 -3.51024008 21.1171513 # CH2_alkane3
478 80 2 0.0 4.88481998 -4.0260148 20.7540874 # CH2_alkane4
479 80 2 0.0 3.80153894 -3.01898408 21.1395035 # CH2_alkane5